
     Program PWSCF v.6.5 starts on 13May2020 at 16:59:15 

     This program is part of the open-source Quantum ESPRESSO suite
     for quantum simulation of materials; please cite
         "P. Giannozzi et al., J. Phys.:Condens. Matter 21 395502 (2009);
         "P. Giannozzi et al., J. Phys.:Condens. Matter 29 465901 (2017);
          URL http://www.quantum-espresso.org", 
     in publications or presentations arising from this work. More details at
     http://www.quantum-espresso.org/quote

     Serial version

     Program PWSCF v.6.5 starts on 13May2020 at 16:59:15 

     This program is part of the open-source Quantum ESPRESSO suite
     for quantum simulation of materials; please cite
         "P. Giannozzi et al., J. Phys.:Condens. Matter 21 395502 (2009);
         "P. Giannozzi et al., J. Phys.:Condens. Matter 29 465901 (2017);
          URL http://www.quantum-espresso.org", 
     in publications or presentations arising from this work. More details at
     http://www.quantum-espresso.org/quote

     Serial version

     Program PWSCF v.6.5 starts on 13May2020 at 16:59:15 

     This program is part of the open-source Quantum ESPRESSO suite
     for quantum simulation of materials; please cite
         "P. Giannozzi et al., J. Phys.:Condens. Matter 21 395502 (2009);
         "P. Giannozzi et al., J. Phys.:Condens. Matter 29 465901 (2017);
          URL http://www.quantum-espresso.org", 
     in publications or presentations arising from this work. More details at
     http://www.quantum-espresso.org/quote

     Serial version
     Reading input from nscf.inp

     Current dimensions of program PWSCF are:
     Max number of different atomic species (ntypx) = 10
     Max number of k-points (npk) =  40000
     Max angular momentum in pseudopotentials (lmaxx) =  3

     Atomic positions and unit cell read from directory:
     ./Gr.save/                                                                                                                                                                                                                                                      
     Reading input from nscf.inp

     Current dimensions of program PWSCF are:
     Max number of different atomic species (ntypx) = 10
     Max number of k-points (npk) =  40000
     Max angular momentum in pseudopotentials (lmaxx) =  3

     Atomic positions and unit cell read from directory:
     ./Gr.save/                                                                                                                                                                                                                                                      
     Reading input from nscf.inp

     Current dimensions of program PWSCF are:
     Max number of different atomic species (ntypx) = 10
     Max number of k-points (npk) =  40000
     Max angular momentum in pseudopotentials (lmaxx) =  3

     Atomic positions and unit cell read from directory:
     ./Gr.save/                                                                                                                                                                                                                                                      

     Program PWSCF v.6.5 starts on 13May2020 at 16:59:15 

     This program is part of the open-source Quantum ESPRESSO suite
     for quantum simulation of materials; please cite
         "P. Giannozzi et al., J. Phys.:Condens. Matter 21 395502 (2009);
         "P. Giannozzi et al., J. Phys.:Condens. Matter 29 465901 (2017);
          URL http://www.quantum-espresso.org", 
     in publications or presentations arising from this work. More details at
     http://www.quantum-espresso.org/quote

     Serial version
     Reading input from nscf.inp

     Current dimensions of program PWSCF are:
     Max number of different atomic species (ntypx) = 10
     Max number of k-points (npk) =  40000
     Max angular momentum in pseudopotentials (lmaxx) =  3

     Atomic positions and unit cell read from directory:
     ./Gr.save/                                                                                                                                                                                                                                                      

     Program PWSCF v.6.5 starts on 13May2020 at 16:59:15 

     This program is part of the open-source Quantum ESPRESSO suite
     for quantum simulation of materials; please cite
         "P. Giannozzi et al., J. Phys.:Condens. Matter 21 395502 (2009);
         "P. Giannozzi et al., J. Phys.:Condens. Matter 29 465901 (2017);
          URL http://www.quantum-espresso.org", 
     in publications or presentations arising from this work. More details at
     http://www.quantum-espresso.org/quote

     Serial version
     Reading input from nscf.inp

     Current dimensions of program PWSCF are:
     Max number of different atomic species (ntypx) = 10
     Max number of k-points (npk) =  40000
     Max angular momentum in pseudopotentials (lmaxx) =  3

     Atomic positions and unit cell read from directory:
     ./Gr.save/                                                                                                                                                                                                                                                      

     Program PWSCF v.6.5 starts on 13May2020 at 16:59:15 

     This program is part of the open-source Quantum ESPRESSO suite
     for quantum simulation of materials; please cite
         "P. Giannozzi et al., J. Phys.:Condens. Matter 21 395502 (2009);
         "P. Giannozzi et al., J. Phys.:Condens. Matter 29 465901 (2017);
          URL http://www.quantum-espresso.org", 
     in publications or presentations arising from this work. More details at
     http://www.quantum-espresso.org/quote

     Serial version
     Reading input from nscf.inp

     Current dimensions of program PWSCF are:
     Max number of different atomic species (ntypx) = 10
     Max number of k-points (npk) =  40000
     Max angular momentum in pseudopotentials (lmaxx) =  3

     Atomic positions and unit cell read from directory:
     ./Gr.save/                                                                                                                                                                                                                                                      

     Program PWSCF v.6.5 starts on 13May2020 at 16:59:15 

     This program is part of the open-source Quantum ESPRESSO suite
     for quantum simulation of materials; please cite
         "P. Giannozzi et al., J. Phys.:Condens. Matter 21 395502 (2009);
         "P. Giannozzi et al., J. Phys.:Condens. Matter 29 465901 (2017);
          URL http://www.quantum-espresso.org", 
     in publications or presentations arising from this work. More details at
     http://www.quantum-espresso.org/quote

     Serial version

     Program PWSCF v.6.5 starts on 13May2020 at 16:59:15 

     This program is part of the open-source Quantum ESPRESSO suite
     for quantum simulation of materials; please cite
         "P. Giannozzi et al., J. Phys.:Condens. Matter 21 395502 (2009);
         "P. Giannozzi et al., J. Phys.:Condens. Matter 29 465901 (2017);
          URL http://www.quantum-espresso.org", 
     in publications or presentations arising from this work. More details at
     http://www.quantum-espresso.org/quote

     Serial version
     Reading input from nscf.inp
     Reading input from nscf.inp

     Program PWSCF v.6.5 starts on 13May2020 at 16:59:15 

     This program is part of the open-source Quantum ESPRESSO suite
     for quantum simulation of materials; please cite
         "P. Giannozzi et al., J. Phys.:Condens. Matter 21 395502 (2009);
         "P. Giannozzi et al., J. Phys.:Condens. Matter 29 465901 (2017);
          URL http://www.quantum-espresso.org", 
     in publications or presentations arising from this work. More details at
     http://www.quantum-espresso.org/quote

     Serial version

     Current dimensions of program PWSCF are:
     Max number of different atomic species (ntypx) = 10
     Max number of k-points (npk) =  40000
     Max angular momentum in pseudopotentials (lmaxx) =  3
     Reading input from nscf.inp

     Atomic positions and unit cell read from directory:
     ./Gr.save/                                                                                                                                                                                                                                                      

     Current dimensions of program PWSCF are:
     Max number of different atomic species (ntypx) = 10
     Max number of k-points (npk) =  40000
     Max angular momentum in pseudopotentials (lmaxx) =  3

     Atomic positions and unit cell read from directory:
     ./Gr.save/                                                                                                                                                                                                                                                      

     Current dimensions of program PWSCF are:
     Max number of different atomic species (ntypx) = 10
     Max number of k-points (npk) =  40000
     Max angular momentum in pseudopotentials (lmaxx) =  3

     Atomic positions and unit cell read from directory:
     ./Gr.save/                                                                                                                                                                                                                                                      

     Program PWSCF v.6.5 starts on 13May2020 at 16:59:15 

     This program is part of the open-source Quantum ESPRESSO suite
     for quantum simulation of materials; please cite
         "P. Giannozzi et al., J. Phys.:Condens. Matter 21 395502 (2009);
         "P. Giannozzi et al., J. Phys.:Condens. Matter 29 465901 (2017);
          URL http://www.quantum-espresso.org", 
     in publications or presentations arising from this work. More details at
     http://www.quantum-espresso.org/quote

     Serial version
     Reading input from nscf.inp

     Current dimensions of program PWSCF are:
     Max number of different atomic species (ntypx) = 10
     Max number of k-points (npk) =  40000
     Max angular momentum in pseudopotentials (lmaxx) =  3

     Atomic positions and unit cell read from directory:
     ./Gr.save/                                                                                                                                                                                                                                                      










     Message from routine read_upf::
     Pseudo file C.pbe-n-kjpaw_psl.0.1.UPF has been fixed on the fly.
To avoid this message in the future, permanently fix 
 your pseudo files following these instructions: 
https://gitlab.com/QEF/q-e/blob/master/upftools/how_to_fix_upf.md
               file C.pbe-n-kjpaw_psl.0.1.UPF: wavefunction(s)  2P renormalized
     Message from routine setup:
     using ibrav=0 with symmetry is DISCOURAGED, use correct ibrav instead

     G-vector sticks info
     --------------------
     sticks:   dense  smooth     PW     G-vecs:    dense   smooth      PW
     Sum         313     313     97                18099    18099    3157


     Title: 
     2 atoms graphene fragment. NSCF                                            


     bravais-lattice index     =            0
     lattice parameter (alat)  =       4.6531  a.u.
     unit-cell volume          =     355.3177 (a.u.)^3
     number of atoms/cell      =            2
     number of atomic types    =            1
     number of electrons       =         8.00
     number of Kohn-Sham states=            8
     kinetic-energy cutoff     =      52.0000  Ry
     charge density cutoff     =     208.0000  Ry
     Exchange-correlation= SLA PW PBX PBC
                           (   1   4   3   4   0   0   0)

     celldm(1)=   4.653073  celldm(2)=   0.000000  celldm(3)=   0.000000
     celldm(4)=   0.000000  celldm(5)=   0.000000  celldm(6)=   0.000000

     crystal axes: (cart. coord. in units of alat)
               a(1) = (   1.001391   0.000000   0.000000 )  
               a(2) = (  -0.500696   0.867230   0.000000 )  
               a(3) = (   0.000000   0.000000   4.061244 )  

     reciprocal axes: (cart. coord. in units 2 pi/alat)
               b(1) = (  0.998611  0.576548 -0.000000 )  
               b(2) = (  0.000000  1.153096  0.000000 )  
               b(3) = (  0.000000 -0.000000  0.246230 )  


     PseudoPot. # 1 for C  read from file:
     ./C.pbe-n-kjpaw_psl.0.1.UPF
     MD5 check sum: 430fe95172b1e11ef3f8ed03bac87931
     Pseudo is Projector augmented-wave + core cor, Zval =  4.0
     Generated using "atomic" code by A. Dal Corso v.5.0.99 svn rev. 10869
     Shape of augmentation charge: BESSEL
     Using radial grid of 1073 points,  4 beta functions with: 
                l(1) =   0
                l(2) =   0
                l(3) =   1
                l(4) =   1
     Q(r) pseudized with 0 coefficients 


     atomic species   valence    mass     pseudopotential
        C              4.00    12.01100     C ( 1.00)

     24 Sym. Ops., with inversion, found


                                    s                        frac. trans.

      isym =  1     identity                                     

 cryst.   s( 1) = (     1          0          0      )
                  (     0          1          0      )
                  (     0          0          1      )

 cart.    s( 1) = (  1.0000000  0.0000000  0.0000000 )
                  (  0.0000000  1.0000000  0.0000000 )
                  (  0.0000000  0.0000000  1.0000000 )


      isym =  2     180 deg rotation - cart. axis [0,0,1]        

 cryst.   s( 2) = (    -1          0          0      )
                  (     0         -1          0      )
                  (     0          0          1      )

 cart.    s( 2) = ( -1.0000000  0.0000000  0.0000000 )
                  (  0.0000000 -1.0000000  0.0000000 )
                  (  0.0000000  0.0000000  1.0000000 )


      isym =  3     180 deg rotation - cart. axis [0,1,0]        

 cryst.   s( 3) = (    -1          0          0      )
                  (     1          1          0      )
                  (     0          0         -1      )

 cart.    s( 3) = ( -1.0000000  0.0000000  0.0000000 )
                  (  0.0000000  1.0000000  0.0000000 )
                  (  0.0000000  0.0000000 -1.0000000 )


      isym =  4     180 deg rotation - cart. axis [1,0,0]        

 cryst.   s( 4) = (     1          0          0      )
                  (    -1         -1          0      )
                  (     0          0         -1      )

 cart.    s( 4) = (  1.0000000 -0.0000000  0.0000000 )
                  (  0.0000000 -1.0000000  0.0000000 )
                  (  0.0000000  0.0000000 -1.0000000 )


      isym =  5      60 deg rotation - cryst. axis [0,0,1]       

 cryst.   s( 5) = (     1          1          0      )
                  (    -1          0          0      )
                  (     0          0          1      )

 cart.    s( 5) = (  0.5000000 -0.8660254  0.0000000 )
                  (  0.8660254  0.5000000  0.0000000 )
                  (  0.0000000  0.0000000  1.0000000 )


      isym =  6      60 deg rotation - cryst. axis [0,0,-1]      

 cryst.   s( 6) = (     0         -1          0      )
                  (     1          1          0      )
                  (     0          0          1      )

 cart.    s( 6) = (  0.5000000  0.8660254  0.0000000 )
                  ( -0.8660254  0.5000000  0.0000000 )
                  (  0.0000000  0.0000000  1.0000000 )


      isym =  7     120 deg rotation - cryst. axis [0,0,1]       

 cryst.   s( 7) = (     0          1          0      )
                  (    -1         -1          0      )
                  (     0          0          1      )

 cart.    s( 7) = ( -0.5000000 -0.8660254  0.0000000 )
                  (  0.8660254 -0.5000000  0.0000000 )
                  (  0.0000000  0.0000000  1.0000000 )


      isym =  8     120 deg rotation - cryst. axis [0,0,-1]      

 cryst.   s( 8) = (    -1         -1          0      )
                  (     1          0          0      )
                  (     0          0          1      )

 cart.    s( 8) = ( -0.5000000  0.8660254  0.0000000 )
                  ( -0.8660254 -0.5000000  0.0000000 )
                  (  0.0000000  0.0000000  1.0000000 )


      isym =  9     180 deg rotation - cryst. axis [1,-1,0]      

 cryst.   s( 9) = (     0         -1          0      )
                  (    -1          0          0      )
                  (     0          0         -1      )

 cart.    s( 9) = (  0.5000000 -0.8660254  0.0000000 )
                  ( -0.8660254 -0.5000000  0.0000000 )
                  (  0.0000000  0.0000000 -1.0000000 )


      isym = 10     180 deg rotation - cryst. axis [2,1,0]       

 cryst.   s(10) = (     1          1          0      )
                  (     0         -1          0      )
                  (     0          0         -1      )

 cart.    s(10) = (  0.5000000  0.8660254  0.0000000 )
                  (  0.8660254 -0.5000000  0.0000000 )
                  (  0.0000000  0.0000000 -1.0000000 )


      isym = 11     180 deg rotation - cryst. axis [0,1,0]       

 cryst.   s(11) = (    -1         -1          0      )
                  (     0          1          0      )
                  (     0          0         -1      )

 cart.    s(11) = ( -0.5000000 -0.8660254  0.0000000 )
                  ( -0.8660254  0.5000000  0.0000000 )
                  (  0.0000000  0.0000000 -1.0000000 )


      isym = 12     180 deg rotation - cryst. axis [1,1,0]       

 cryst.   s(12) = (     0          1          0      )
                  (     1          0          0      )
                  (     0          0         -1      )

 cart.    s(12) = ( -0.5000000  0.8660254  0.0000000 )
                  (  0.8660254  0.5000000  0.0000000 )
                  (  0.0000000  0.0000000 -1.0000000 )


      isym = 13     inversion                                    

 cryst.   s(13) = (    -1          0          0      )
                  (     0         -1          0      )
                  (     0          0         -1      )

 cart.    s(13) = ( -1.0000000  0.0000000  0.0000000 )
                  (  0.0000000 -1.0000000  0.0000000 )
                  (  0.0000000  0.0000000 -1.0000000 )


      isym = 14     inv. 180 deg rotation - cart. axis [0,0,1]   

 cryst.   s(14) = (     1          0          0      )
                  (     0          1          0      )
                  (     0          0         -1      )

 cart.    s(14) = (  1.0000000  0.0000000  0.0000000 )
                  (  0.0000000  1.0000000  0.0000000 )
                  (  0.0000000  0.0000000 -1.0000000 )


      isym = 15     inv. 180 deg rotation - cart. axis [0,1,0]   

 cryst.   s(15) = (     1          0          0      )
                  (    -1         -1          0      )
                  (     0          0          1      )

 cart.    s(15) = (  1.0000000 -0.0000000  0.0000000 )
                  (  0.0000000 -1.0000000  0.0000000 )
                  (  0.0000000  0.0000000  1.0000000 )


      isym = 16     inv. 180 deg rotation - cart. axis [1,0,0]   

 cryst.   s(16) = (    -1          0          0      )
                  (     1          1          0      )
                  (     0          0          1      )

 cart.    s(16) = ( -1.0000000  0.0000000  0.0000000 )
                  (  0.0000000  1.0000000  0.0000000 )
                  (  0.0000000  0.0000000  1.0000000 )


      isym = 17     inv.  60 deg rotation - cryst. axis [0,0,1]  

 cryst.   s(17) = (    -1         -1          0      )
                  (     1          0          0      )
                  (     0          0         -1      )

 cart.    s(17) = ( -0.5000000  0.8660254  0.0000000 )
                  ( -0.8660254 -0.5000000  0.0000000 )
                  (  0.0000000  0.0000000 -1.0000000 )


      isym = 18     inv.  60 deg rotation - cryst. axis [0,0,-1] 

 cryst.   s(18) = (     0          1          0      )
                  (    -1         -1          0      )
                  (     0          0         -1      )

 cart.    s(18) = ( -0.5000000 -0.8660254  0.0000000 )
                  (  0.8660254 -0.5000000  0.0000000 )
                  (  0.0000000  0.0000000 -1.0000000 )


      isym = 19     inv. 120 deg rotation - cryst. axis [0,0,1]  

 cryst.   s(19) = (     0         -1          0      )
                  (     1          1          0      )
                  (     0          0         -1      )

 cart.    s(19) = (  0.5000000  0.8660254  0.0000000 )
                  ( -0.8660254  0.5000000  0.0000000 )
                  (  0.0000000  0.0000000 -1.0000000 )


      isym = 20     inv. 120 deg rotation - cryst. axis [0,0,-1] 

 cryst.   s(20) = (     1          1          0      )
                  (    -1          0          0      )
                  (     0          0         -1      )

 cart.    s(20) = (  0.5000000 -0.8660254  0.0000000 )
                  (  0.8660254  0.5000000  0.0000000 )
                  (  0.0000000  0.0000000 -1.0000000 )


      isym = 21     inv. 180 deg rotation - cryst. axis [1,-1,0] 

 cryst.   s(21) = (     0          1          0      )
                  (     1          0          0      )
                  (     0          0          1      )

 cart.    s(21) = ( -0.5000000  0.8660254  0.0000000 )
                  (  0.8660254  0.5000000  0.0000000 )
                  (  0.0000000  0.0000000  1.0000000 )


      isym = 22     inv. 180 deg rotation - cryst. axis [2,1,0]  

 cryst.   s(22) = (    -1         -1          0      )
                  (     0          1          0      )
                  (     0          0          1      )

 cart.    s(22) = ( -0.5000000 -0.8660254  0.0000000 )
                  ( -0.8660254  0.5000000  0.0000000 )
                  (  0.0000000  0.0000000  1.0000000 )


      isym = 23     inv. 180 deg rotation - cryst. axis [0,1,0]  

 cryst.   s(23) = (     1          1          0      )
                  (     0         -1          0      )
                  (     0          0          1      )

 cart.    s(23) = (  0.5000000  0.8660254  0.0000000 )
                  (  0.8660254 -0.5000000  0.0000000 )
                  (  0.0000000  0.0000000  1.0000000 )


      isym = 24     inv. 180 deg rotation - cryst. axis [1,1,0]  

 cryst.   s(24) = (     0         -1          0      )
                  (    -1          0          0      )
                  (     0          0          1      )

 cart.    s(24) = (  0.5000000 -0.8660254  0.0000000 )
                  ( -0.8660254 -0.5000000  0.0000000 )
                  (  0.0000000  0.0000000  1.0000000 )


   Cartesian axes

     site n.     atom                  positions (alat units)
         1           C   tau(   1) = (   0.0000000   0.5781535   2.0306218  )
         2           C   tau(   2) = (   0.5006957   0.2890768   2.0306218  )

   Crystallographic axes

     site n.     atom                  positions (cryst. coord.)
         1           C   tau(   1) = (  0.3333333  0.6666667  0.5000000  )
         2           C   tau(   2) = (  0.6666667  0.3333333  0.5000000  )

     number of k points=    61 (tetrahedron method)
                       cart. coord. in units 2pi/alat
        k(    1) = (   0.0000000   0.0000000   0.0000000), wk =   0.0034722
        k(    2) = (   0.0000000   0.0480457   0.0000000), wk =   0.0208333
        k(    3) = (   0.0000000   0.0960914   0.0000000), wk =   0.0208333
        k(    4) = (   0.0000000   0.1441370   0.0000000), wk =   0.0208333
        k(    5) = (   0.0000000   0.1921827   0.0000000), wk =   0.0208333
        k(    6) = (   0.0000000   0.2402284   0.0000000), wk =   0.0208333
        k(    7) = (   0.0000000   0.2882741   0.0000000), wk =   0.0208333
        k(    8) = (   0.0000000   0.3363197   0.0000000), wk =   0.0208333
        k(    9) = (   0.0000000   0.3843654   0.0000000), wk =   0.0208333
        k(   10) = (   0.0000000   0.4324111   0.0000000), wk =   0.0208333
        k(   11) = (   0.0000000   0.4804568   0.0000000), wk =   0.0208333
        k(   12) = (   0.0000000   0.5285024   0.0000000), wk =   0.0208333
        k(   13) = (   0.0000000  -0.5765481   0.0000000), wk =   0.0104167
        k(   14) = (   0.0416088   0.0720685   0.0000000), wk =   0.0208333
        k(   15) = (   0.0416088   0.1201142   0.0000000), wk =   0.0416667
        k(   16) = (   0.0416088   0.1681599   0.0000000), wk =   0.0416667
        k(   17) = (   0.0416088   0.2162055   0.0000000), wk =   0.0416667
        k(   18) = (   0.0416088   0.2642512   0.0000000), wk =   0.0416667
        k(   19) = (   0.0416088   0.3122969   0.0000000), wk =   0.0416667
        k(   20) = (   0.0416088   0.3603426   0.0000000), wk =   0.0416667
        k(   21) = (   0.0416088   0.4083882   0.0000000), wk =   0.0416667
        k(   22) = (   0.0416088   0.4564339   0.0000000), wk =   0.0416667
        k(   23) = (   0.0416088   0.5044796   0.0000000), wk =   0.0416667
        k(   24) = (   0.0416088   0.5525253   0.0000000), wk =   0.0416667
        k(   25) = (   0.0832176   0.1441370   0.0000000), wk =   0.0208333
        k(   26) = (   0.0832176   0.1921827   0.0000000), wk =   0.0416667
        k(   27) = (   0.0832176   0.2402284   0.0000000), wk =   0.0416667
        k(   28) = (   0.0832176   0.2882741   0.0000000), wk =   0.0416667
        k(   29) = (   0.0832176   0.3363197   0.0000000), wk =   0.0416667
        k(   30) = (   0.0832176   0.3843654   0.0000000), wk =   0.0416667
        k(   31) = (   0.0832176   0.4324111   0.0000000), wk =   0.0416667
        k(   32) = (   0.0832176   0.4804568   0.0000000), wk =   0.0416667
        k(   33) = (   0.0832176   0.5285024   0.0000000), wk =   0.0416667
        k(   34) = (   0.0832176   0.5765481   0.0000000), wk =   0.0208333
        k(   35) = (   0.1248263   0.2162055   0.0000000), wk =   0.0208333
        k(   36) = (   0.1248263   0.2642512   0.0000000), wk =   0.0416667
        k(   37) = (   0.1248263   0.3122969   0.0000000), wk =   0.0416667
        k(   38) = (   0.1248263   0.3603426   0.0000000), wk =   0.0416667
        k(   39) = (   0.1248263   0.4083882   0.0000000), wk =   0.0416667
        k(   40) = (   0.1248263   0.4564339   0.0000000), wk =   0.0416667
        k(   41) = (   0.1248263   0.5044796   0.0000000), wk =   0.0416667
        k(   42) = (   0.1248263   0.5525253   0.0000000), wk =   0.0416667
        k(   43) = (   0.1664351   0.2882741   0.0000000), wk =   0.0208333
        k(   44) = (   0.1664351   0.3363197   0.0000000), wk =   0.0416667
        k(   45) = (   0.1664351   0.3843654   0.0000000), wk =   0.0416667
        k(   46) = (   0.1664351   0.4324111   0.0000000), wk =   0.0416667
        k(   47) = (   0.1664351   0.4804568   0.0000000), wk =   0.0416667
        k(   48) = (   0.1664351   0.5285024   0.0000000), wk =   0.0416667
        k(   49) = (   0.1664351   0.5765481   0.0000000), wk =   0.0208333
        k(   50) = (   0.2080439   0.3603426   0.0000000), wk =   0.0208333
        k(   51) = (   0.2080439   0.4083882   0.0000000), wk =   0.0416667
        k(   52) = (   0.2080439   0.4564339   0.0000000), wk =   0.0416667
        k(   53) = (   0.2080439   0.5044796   0.0000000), wk =   0.0416667
        k(   54) = (   0.2080439   0.5525253   0.0000000), wk =   0.0416667
        k(   55) = (   0.2496527   0.4324111   0.0000000), wk =   0.0208333
        k(   56) = (   0.2496527   0.4804568   0.0000000), wk =   0.0416667
        k(   57) = (   0.2496527   0.5285024   0.0000000), wk =   0.0416667
        k(   58) = (   0.2496527   0.5765481   0.0000000), wk =   0.0208333
        k(   59) = (   0.2912614   0.5044796   0.0000000), wk =   0.0208333
        k(   60) = (   0.2912614   0.5525253   0.0000000), wk =   0.0416667
        k(   61) = (   0.3328702   0.5765481   0.0000000), wk =   0.0069444

                       cryst. coord.
        k(    1) = (   0.0000000   0.0000000   0.0000000), wk =   0.0034722
        k(    2) = (   0.0000000   0.0416667   0.0000000), wk =   0.0208333
        k(    3) = (   0.0000000   0.0833333   0.0000000), wk =   0.0208333
        k(    4) = (   0.0000000   0.1250000   0.0000000), wk =   0.0208333
        k(    5) = (   0.0000000   0.1666667   0.0000000), wk =   0.0208333
        k(    6) = (   0.0000000   0.2083333   0.0000000), wk =   0.0208333
        k(    7) = (   0.0000000   0.2500000   0.0000000), wk =   0.0208333
        k(    8) = (   0.0000000   0.2916667   0.0000000), wk =   0.0208333
        k(    9) = (   0.0000000   0.3333333   0.0000000), wk =   0.0208333
        k(   10) = (   0.0000000   0.3750000   0.0000000), wk =   0.0208333
        k(   11) = (   0.0000000   0.4166667   0.0000000), wk =   0.0208333
        k(   12) = (   0.0000000   0.4583333   0.0000000), wk =   0.0208333
        k(   13) = (   0.0000000  -0.5000000   0.0000000), wk =   0.0104167
        k(   14) = (   0.0416667   0.0416667   0.0000000), wk =   0.0208333
        k(   15) = (   0.0416667   0.0833333   0.0000000), wk =   0.0416667
        k(   16) = (   0.0416667   0.1250000   0.0000000), wk =   0.0416667
        k(   17) = (   0.0416667   0.1666667   0.0000000), wk =   0.0416667
        k(   18) = (   0.0416667   0.2083333   0.0000000), wk =   0.0416667
        k(   19) = (   0.0416667   0.2500000   0.0000000), wk =   0.0416667
        k(   20) = (   0.0416667   0.2916667   0.0000000), wk =   0.0416667
        k(   21) = (   0.0416667   0.3333333   0.0000000), wk =   0.0416667
        k(   22) = (   0.0416667   0.3750000   0.0000000), wk =   0.0416667
        k(   23) = (   0.0416667   0.4166667   0.0000000), wk =   0.0416667
        k(   24) = (   0.0416667   0.4583333   0.0000000), wk =   0.0416667
        k(   25) = (   0.0833333   0.0833333   0.0000000), wk =   0.0208333
        k(   26) = (   0.0833333   0.1250000   0.0000000), wk =   0.0416667
        k(   27) = (   0.0833333   0.1666667   0.0000000), wk =   0.0416667
        k(   28) = (   0.0833333   0.2083333   0.0000000), wk =   0.0416667
        k(   29) = (   0.0833333   0.2500000   0.0000000), wk =   0.0416667
        k(   30) = (   0.0833333   0.2916667   0.0000000), wk =   0.0416667
        k(   31) = (   0.0833333   0.3333333   0.0000000), wk =   0.0416667
        k(   32) = (   0.0833333   0.3750000   0.0000000), wk =   0.0416667
        k(   33) = (   0.0833333   0.4166667   0.0000000), wk =   0.0416667
        k(   34) = (   0.0833333   0.4583333   0.0000000), wk =   0.0208333
        k(   35) = (   0.1250000   0.1250000   0.0000000), wk =   0.0208333
        k(   36) = (   0.1250000   0.1666667   0.0000000), wk =   0.0416667
        k(   37) = (   0.1250000   0.2083333   0.0000000), wk =   0.0416667
        k(   38) = (   0.1250000   0.2500000   0.0000000), wk =   0.0416667
        k(   39) = (   0.1250000   0.2916667   0.0000000), wk =   0.0416667
        k(   40) = (   0.1250000   0.3333333   0.0000000), wk =   0.0416667
        k(   41) = (   0.1250000   0.3750000   0.0000000), wk =   0.0416667
        k(   42) = (   0.1250000   0.4166667   0.0000000), wk =   0.0416667
        k(   43) = (   0.1666667   0.1666667   0.0000000), wk =   0.0208333
        k(   44) = (   0.1666667   0.2083333   0.0000000), wk =   0.0416667
        k(   45) = (   0.1666667   0.2500000   0.0000000), wk =   0.0416667
        k(   46) = (   0.1666667   0.2916667   0.0000000), wk =   0.0416667
        k(   47) = (   0.1666667   0.3333333   0.0000000), wk =   0.0416667
        k(   48) = (   0.1666667   0.3750000   0.0000000), wk =   0.0416667
        k(   49) = (   0.1666667   0.4166667   0.0000000), wk =   0.0208333
        k(   50) = (   0.2083333   0.2083333   0.0000000), wk =   0.0208333
        k(   51) = (   0.2083333   0.2500000   0.0000000), wk =   0.0416667
        k(   52) = (   0.2083333   0.2916667   0.0000000), wk =   0.0416667
        k(   53) = (   0.2083333   0.3333333   0.0000000), wk =   0.0416667
        k(   54) = (   0.2083333   0.3750000   0.0000000), wk =   0.0416667
        k(   55) = (   0.2500000   0.2500000   0.0000000), wk =   0.0208333
        k(   56) = (   0.2500000   0.2916667   0.0000000), wk =   0.0416667
        k(   57) = (   0.2500000   0.3333333   0.0000000), wk =   0.0416667
        k(   58) = (   0.2500000   0.3750000   0.0000000), wk =   0.0208333
        k(   59) = (   0.2916667   0.2916667   0.0000000), wk =   0.0208333
        k(   60) = (   0.2916667   0.3333333   0.0000000), wk =   0.0416667
        k(   61) = (   0.3333333   0.3333333   0.0000000), wk =   0.0069444

     Dense  grid:    18099 G-vectors     FFT dimensions: (  24,  24,  90)

     Dynamical RAM for                 wfc:       0.27 MB

     Dynamical RAM for     wfc (w. buffer):       0.27 MB

     Dynamical RAM for           str. fact:       0.28 MB

     Dynamical RAM for           local pot:       0.00 MB

     Dynamical RAM for          nlocal pot:       0.55 MB

     Dynamical RAM for                qrad:       0.25 MB

     Dynamical RAM for          rho,v,vnew:       2.02 MB

     Dynamical RAM for           G-vectors:       1.17 MB

     Dynamical RAM for          h,s,v(r/c):       0.05 MB

     Dynamical RAM for          <psi|beta>:       0.00 MB

     Dynamical RAM for                 psi:       1.10 MB

     Dynamical RAM for                hpsi:       1.10 MB

     Dynamical RAM for                spsi:       1.10 MB

     Dynamical RAM for      wfcinit/wfcrot:       0.55 MB

     Dynamical RAM for           addusdens:      12.43 MB

     Estimated static dynamical RAM per process >       7.06 MB

     Estimated max dynamical RAM per process >      19.49 MB
     Message from routine read_upf::
     Pseudo file C.pbe-n-kjpaw_psl.0.1.UPF has been fixed on the fly.
To avoid this message in the future, permanently fix 
 your pseudo files following these instructions: 
https://gitlab.com/QEF/q-e/blob/master/upftools/how_to_fix_upf.md
               file C.pbe-n-kjpaw_psl.0.1.UPF: wavefunction(s)  2P renormalized
     Message from routine setup:
     using ibrav=0 with symmetry is DISCOURAGED, use correct ibrav instead

     G-vector sticks info
     --------------------
     sticks:   dense  smooth     PW     G-vecs:    dense   smooth      PW
     Sum         313     313     97                18099    18099    3157


     Title: 
     2 atoms graphene fragment. NSCF                                            


     bravais-lattice index     =            0
     lattice parameter (alat)  =       4.6531  a.u.
     unit-cell volume          =     355.3177 (a.u.)^3
     number of atoms/cell      =            2
     number of atomic types    =            1
     number of electrons       =         8.00
     number of Kohn-Sham states=            8
     kinetic-energy cutoff     =      52.0000  Ry
     charge density cutoff     =     208.0000  Ry
     Exchange-correlation= SLA PW PBX PBC
                           (   1   4   3   4   0   0   0)

     celldm(1)=   4.653073  celldm(2)=   0.000000  celldm(3)=   0.000000
     celldm(4)=   0.000000  celldm(5)=   0.000000  celldm(6)=   0.000000

     crystal axes: (cart. coord. in units of alat)
               a(1) = (   1.001391   0.000000   0.000000 )  
               a(2) = (  -0.500696   0.867230   0.000000 )  
               a(3) = (   0.000000   0.000000   4.061244 )  

     reciprocal axes: (cart. coord. in units 2 pi/alat)
               b(1) = (  0.998611  0.576548 -0.000000 )  
               b(2) = (  0.000000  1.153096  0.000000 )  
               b(3) = (  0.000000 -0.000000  0.246230 )  


     PseudoPot. # 1 for C  read from file:
     ./C.pbe-n-kjpaw_psl.0.1.UPF
     MD5 check sum: 430fe95172b1e11ef3f8ed03bac87931
     Pseudo is Projector augmented-wave + core cor, Zval =  4.0
     Generated using "atomic" code by A. Dal Corso v.5.0.99 svn rev. 10869
     Shape of augmentation charge: BESSEL
     Using radial grid of 1073 points,  4 beta functions with: 
                l(1) =   0
                l(2) =   0
                l(3) =   1
                l(4) =   1
     Q(r) pseudized with 0 coefficients 


     atomic species   valence    mass     pseudopotential
        C              4.00    12.01100     C ( 1.00)

     24 Sym. Ops., with inversion, found


                                    s                        frac. trans.

      isym =  1     identity                                     

 cryst.   s( 1) = (     1          0          0      )
                  (     0          1          0      )
                  (     0          0          1      )

 cart.    s( 1) = (  1.0000000  0.0000000  0.0000000 )
                  (  0.0000000  1.0000000  0.0000000 )
                  (  0.0000000  0.0000000  1.0000000 )


      isym =  2     180 deg rotation - cart. axis [0,0,1]        

 cryst.   s( 2) = (    -1          0          0      )
                  (     0         -1          0      )
                  (     0          0          1      )

 cart.    s( 2) = ( -1.0000000  0.0000000  0.0000000 )
                  (  0.0000000 -1.0000000  0.0000000 )
                  (  0.0000000  0.0000000  1.0000000 )


      isym =  3     180 deg rotation - cart. axis [0,1,0]        

 cryst.   s( 3) = (    -1          0          0      )
                  (     1          1          0      )
                  (     0          0         -1      )

 cart.    s( 3) = ( -1.0000000  0.0000000  0.0000000 )
                  (  0.0000000  1.0000000  0.0000000 )
                  (  0.0000000  0.0000000 -1.0000000 )


      isym =  4     180 deg rotation - cart. axis [1,0,0]        

 cryst.   s( 4) = (     1          0          0      )
                  (    -1         -1          0      )
                  (     0          0         -1      )

 cart.    s( 4) = (  1.0000000 -0.0000000  0.0000000 )
                  (  0.0000000 -1.0000000  0.0000000 )
                  (  0.0000000  0.0000000 -1.0000000 )


      isym =  5      60 deg rotation - cryst. axis [0,0,1]       

 cryst.   s( 5) = (     1          1          0      )
                  (    -1          0          0      )
                  (     0          0          1      )

 cart.    s( 5) = (  0.5000000 -0.8660254  0.0000000 )
                  (  0.8660254  0.5000000  0.0000000 )
                  (  0.0000000  0.0000000  1.0000000 )


      isym =  6      60 deg rotation - cryst. axis [0,0,-1]      

 cryst.   s( 6) = (     0         -1          0      )
                  (     1          1          0      )
                  (     0          0          1      )

 cart.    s( 6) = (  0.5000000  0.8660254  0.0000000 )
                  ( -0.8660254  0.5000000  0.0000000 )
                  (  0.0000000  0.0000000  1.0000000 )


      isym =  7     120 deg rotation - cryst. axis [0,0,1]       

 cryst.   s( 7) = (     0          1          0      )
                  (    -1         -1          0      )
                  (     0          0          1      )

 cart.    s( 7) = ( -0.5000000 -0.8660254  0.0000000 )
                  (  0.8660254 -0.5000000  0.0000000 )
                  (  0.0000000  0.0000000  1.0000000 )


      isym =  8     120 deg rotation - cryst. axis [0,0,-1]      

 cryst.   s( 8) = (    -1         -1          0      )
                  (     1          0          0      )
                  (     0          0          1      )

 cart.    s( 8) = ( -0.5000000  0.8660254  0.0000000 )
                  ( -0.8660254 -0.5000000  0.0000000 )
                  (  0.0000000  0.0000000  1.0000000 )


      isym =  9     180 deg rotation - cryst. axis [1,-1,0]      

 cryst.   s( 9) = (     0         -1          0      )
                  (    -1          0          0      )
                  (     0          0         -1      )

 cart.    s( 9) = (  0.5000000 -0.8660254  0.0000000 )
                  ( -0.8660254 -0.5000000  0.0000000 )
                  (  0.0000000  0.0000000 -1.0000000 )


      isym = 10     180 deg rotation - cryst. axis [2,1,0]       

 cryst.   s(10) = (     1          1          0      )
                  (     0         -1          0      )
                  (     0          0         -1      )

 cart.    s(10) = (  0.5000000  0.8660254  0.0000000 )
                  (  0.8660254 -0.5000000  0.0000000 )
                  (  0.0000000  0.0000000 -1.0000000 )


      isym = 11     180 deg rotation - cryst. axis [0,1,0]       

 cryst.   s(11) = (    -1         -1          0      )
                  (     0          1          0      )
                  (     0          0         -1      )

 cart.    s(11) = ( -0.5000000 -0.8660254  0.0000000 )
                  ( -0.8660254  0.5000000  0.0000000 )
                  (  0.0000000  0.0000000 -1.0000000 )


      isym = 12     180 deg rotation - cryst. axis [1,1,0]       

 cryst.   s(12) = (     0          1          0      )
                  (     1          0          0      )
                  (     0          0         -1      )

 cart.    s(12) = ( -0.5000000  0.8660254  0.0000000 )
                  (  0.8660254  0.5000000  0.0000000 )
                  (  0.0000000  0.0000000 -1.0000000 )


      isym = 13     inversion                                    

 cryst.   s(13) = (    -1          0          0      )
                  (     0         -1          0      )
                  (     0          0         -1      )

 cart.    s(13) = ( -1.0000000  0.0000000  0.0000000 )
                  (  0.0000000 -1.0000000  0.0000000 )
                  (  0.0000000  0.0000000 -1.0000000 )


      isym = 14     inv. 180 deg rotation - cart. axis [0,0,1]   

 cryst.   s(14) = (     1          0          0      )
                  (     0          1          0      )
                  (     0          0         -1      )

 cart.    s(14) = (  1.0000000  0.0000000  0.0000000 )
                  (  0.0000000  1.0000000  0.0000000 )
                  (  0.0000000  0.0000000 -1.0000000 )


      isym = 15     inv. 180 deg rotation - cart. axis [0,1,0]   

 cryst.   s(15) = (     1          0          0      )
                  (    -1         -1          0      )
                  (     0          0          1      )

 cart.    s(15) = (  1.0000000 -0.0000000  0.0000000 )
                  (  0.0000000 -1.0000000  0.0000000 )
                  (  0.0000000  0.0000000  1.0000000 )


      isym = 16     inv. 180 deg rotation - cart. axis [1,0,0]   

 cryst.   s(16) = (    -1          0          0      )
                  (     1          1          0      )
                  (     0          0          1      )

 cart.    s(16) = ( -1.0000000  0.0000000  0.0000000 )
                  (  0.0000000  1.0000000  0.0000000 )
                  (  0.0000000  0.0000000  1.0000000 )


      isym = 17     inv.  60 deg rotation - cryst. axis [0,0,1]  

 cryst.   s(17) = (    -1         -1          0      )
                  (     1          0          0      )
                  (     0          0         -1      )

 cart.    s(17) = ( -0.5000000  0.8660254  0.0000000 )
                  ( -0.8660254 -0.5000000  0.0000000 )
                  (  0.0000000  0.0000000 -1.0000000 )


      isym = 18     inv.  60 deg rotation - cryst. axis [0,0,-1] 

 cryst.   s(18) = (     0          1          0      )
                  (    -1         -1          0      )
                  (     0          0         -1      )

 cart.    s(18) = ( -0.5000000 -0.8660254  0.0000000 )
                  (  0.8660254 -0.5000000  0.0000000 )
                  (  0.0000000  0.0000000 -1.0000000 )


      isym = 19     inv. 120 deg rotation - cryst. axis [0,0,1]  

 cryst.   s(19) = (     0         -1          0      )
                  (     1          1          0      )
                  (     0          0         -1      )

 cart.    s(19) = (  0.5000000  0.8660254  0.0000000 )
                  ( -0.8660254  0.5000000  0.0000000 )
                  (  0.0000000  0.0000000 -1.0000000 )


      isym = 20     inv. 120 deg rotation - cryst. axis [0,0,-1] 

 cryst.   s(20) = (     1          1          0      )
                  (    -1          0          0      )
                  (     0          0         -1      )

 cart.    s(20) = (  0.5000000 -0.8660254  0.0000000 )
                  (  0.8660254  0.5000000  0.0000000 )
                  (  0.0000000  0.0000000 -1.0000000 )


      isym = 21     inv. 180 deg rotation - cryst. axis [1,-1,0] 

 cryst.   s(21) = (     0          1          0      )
                  (     1          0          0      )
                  (     0          0          1      )

 cart.    s(21) = ( -0.5000000  0.8660254  0.0000000 )
                  (  0.8660254  0.5000000  0.0000000 )
                  (  0.0000000  0.0000000  1.0000000 )


      isym = 22     inv. 180 deg rotation - cryst. axis [2,1,0]  

 cryst.   s(22) = (    -1         -1          0      )
                  (     0          1          0      )
                  (     0          0          1      )

 cart.    s(22) = ( -0.5000000 -0.8660254  0.0000000 )
                  ( -0.8660254  0.5000000  0.0000000 )
                  (  0.0000000  0.0000000  1.0000000 )


      isym = 23     inv. 180 deg rotation - cryst. axis [0,1,0]  

 cryst.   s(23) = (     1          1          0      )
                  (     0         -1          0      )
                  (     0          0          1      )

 cart.    s(23) = (  0.5000000  0.8660254  0.0000000 )
                  (  0.8660254 -0.5000000  0.0000000 )
                  (  0.0000000  0.0000000  1.0000000 )


      isym = 24     inv. 180 deg rotation - cryst. axis [1,1,0]  

 cryst.   s(24) = (     0         -1          0      )
                  (    -1          0          0      )
                  (     0          0          1      )

 cart.    s(24) = (  0.5000000 -0.8660254  0.0000000 )
                  ( -0.8660254 -0.5000000  0.0000000 )
                  (  0.0000000  0.0000000  1.0000000 )


   Cartesian axes

     site n.     atom                  positions (alat units)
         1           C   tau(   1) = (   0.0000000   0.5781535   2.0306218  )
         2           C   tau(   2) = (   0.5006957   0.2890768   2.0306218  )

   Crystallographic axes

     site n.     atom                  positions (cryst. coord.)
         1           C   tau(   1) = (  0.3333333  0.6666667  0.5000000  )
         2           C   tau(   2) = (  0.6666667  0.3333333  0.5000000  )

     number of k points=    61 (tetrahedron method)
                       cart. coord. in units 2pi/alat
        k(    1) = (   0.0000000   0.0000000   0.0000000), wk =   0.0034722
        k(    2) = (   0.0000000   0.0480457   0.0000000), wk =   0.0208333
        k(    3) = (   0.0000000   0.0960914   0.0000000), wk =   0.0208333
        k(    4) = (   0.0000000   0.1441370   0.0000000), wk =   0.0208333
        k(    5) = (   0.0000000   0.1921827   0.0000000), wk =   0.0208333
        k(    6) = (   0.0000000   0.2402284   0.0000000), wk =   0.0208333
        k(    7) = (   0.0000000   0.2882741   0.0000000), wk =   0.0208333
        k(    8) = (   0.0000000   0.3363197   0.0000000), wk =   0.0208333
        k(    9) = (   0.0000000   0.3843654   0.0000000), wk =   0.0208333
        k(   10) = (   0.0000000   0.4324111   0.0000000), wk =   0.0208333
        k(   11) = (   0.0000000   0.4804568   0.0000000), wk =   0.0208333
        k(   12) = (   0.0000000   0.5285024   0.0000000), wk =   0.0208333
        k(   13) = (   0.0000000  -0.5765481   0.0000000), wk =   0.0104167
        k(   14) = (   0.0416088   0.0720685   0.0000000), wk =   0.0208333
        k(   15) = (   0.0416088   0.1201142   0.0000000), wk =   0.0416667
        k(   16) = (   0.0416088   0.1681599   0.0000000), wk =   0.0416667
        k(   17) = (   0.0416088   0.2162055   0.0000000), wk =   0.0416667
        k(   18) = (   0.0416088   0.2642512   0.0000000), wk =   0.0416667
        k(   19) = (   0.0416088   0.3122969   0.0000000), wk =   0.0416667
        k(   20) = (   0.0416088   0.3603426   0.0000000), wk =   0.0416667
        k(   21) = (   0.0416088   0.4083882   0.0000000), wk =   0.0416667
        k(   22) = (   0.0416088   0.4564339   0.0000000), wk =   0.0416667
        k(   23) = (   0.0416088   0.5044796   0.0000000), wk =   0.0416667
        k(   24) = (   0.0416088   0.5525253   0.0000000), wk =   0.0416667
        k(   25) = (   0.0832176   0.1441370   0.0000000), wk =   0.0208333
        k(   26) = (   0.0832176   0.1921827   0.0000000), wk =   0.0416667
        k(   27) = (   0.0832176   0.2402284   0.0000000), wk =   0.0416667
        k(   28) = (   0.0832176   0.2882741   0.0000000), wk =   0.0416667
        k(   29) = (   0.0832176   0.3363197   0.0000000), wk =   0.0416667
        k(   30) = (   0.0832176   0.3843654   0.0000000), wk =   0.0416667
        k(   31) = (   0.0832176   0.4324111   0.0000000), wk =   0.0416667
        k(   32) = (   0.0832176   0.4804568   0.0000000), wk =   0.0416667
        k(   33) = (   0.0832176   0.5285024   0.0000000), wk =   0.0416667
        k(   34) = (   0.0832176   0.5765481   0.0000000), wk =   0.0208333
        k(   35) = (   0.1248263   0.2162055   0.0000000), wk =   0.0208333
        k(   36) = (   0.1248263   0.2642512   0.0000000), wk =   0.0416667
        k(   37) = (   0.1248263   0.3122969   0.0000000), wk =   0.0416667
        k(   38) = (   0.1248263   0.3603426   0.0000000), wk =   0.0416667
        k(   39) = (   0.1248263   0.4083882   0.0000000), wk =   0.0416667
        k(   40) = (   0.1248263   0.4564339   0.0000000), wk =   0.0416667
        k(   41) = (   0.1248263   0.5044796   0.0000000), wk =   0.0416667
        k(   42) = (   0.1248263   0.5525253   0.0000000), wk =   0.0416667
        k(   43) = (   0.1664351   0.2882741   0.0000000), wk =   0.0208333
        k(   44) = (   0.1664351   0.3363197   0.0000000), wk =   0.0416667
        k(   45) = (   0.1664351   0.3843654   0.0000000), wk =   0.0416667
        k(   46) = (   0.1664351   0.4324111   0.0000000), wk =   0.0416667
        k(   47) = (   0.1664351   0.4804568   0.0000000), wk =   0.0416667
        k(   48) = (   0.1664351   0.5285024   0.0000000), wk =   0.0416667
        k(   49) = (   0.1664351   0.5765481   0.0000000), wk =   0.0208333
        k(   50) = (   0.2080439   0.3603426   0.0000000), wk =   0.0208333
        k(   51) = (   0.2080439   0.4083882   0.0000000), wk =   0.0416667
        k(   52) = (   0.2080439   0.4564339   0.0000000), wk =   0.0416667
        k(   53) = (   0.2080439   0.5044796   0.0000000), wk =   0.0416667
        k(   54) = (   0.2080439   0.5525253   0.0000000), wk =   0.0416667
        k(   55) = (   0.2496527   0.4324111   0.0000000), wk =   0.0208333
        k(   56) = (   0.2496527   0.4804568   0.0000000), wk =   0.0416667
        k(   57) = (   0.2496527   0.5285024   0.0000000), wk =   0.0416667
        k(   58) = (   0.2496527   0.5765481   0.0000000), wk =   0.0208333
        k(   59) = (   0.2912614   0.5044796   0.0000000), wk =   0.0208333
        k(   60) = (   0.2912614   0.5525253   0.0000000), wk =   0.0416667
        k(   61) = (   0.3328702   0.5765481   0.0000000), wk =   0.0069444

                       cryst. coord.
        k(    1) = (   0.0000000   0.0000000   0.0000000), wk =   0.0034722
        k(    2) = (   0.0000000   0.0416667   0.0000000), wk =   0.0208333
        k(    3) = (   0.0000000   0.0833333   0.0000000), wk =   0.0208333
        k(    4) = (   0.0000000   0.1250000   0.0000000), wk =   0.0208333
        k(    5) = (   0.0000000   0.1666667   0.0000000), wk =   0.0208333
        k(    6) = (   0.0000000   0.2083333   0.0000000), wk =   0.0208333
        k(    7) = (   0.0000000   0.2500000   0.0000000), wk =   0.0208333
        k(    8) = (   0.0000000   0.2916667   0.0000000), wk =   0.0208333
        k(    9) = (   0.0000000   0.3333333   0.0000000), wk =   0.0208333
        k(   10) = (   0.0000000   0.3750000   0.0000000), wk =   0.0208333
        k(   11) = (   0.0000000   0.4166667   0.0000000), wk =   0.0208333
        k(   12) = (   0.0000000   0.4583333   0.0000000), wk =   0.0208333
        k(   13) = (   0.0000000  -0.5000000   0.0000000), wk =   0.0104167
        k(   14) = (   0.0416667   0.0416667   0.0000000), wk =   0.0208333
        k(   15) = (   0.0416667   0.0833333   0.0000000), wk =   0.0416667
        k(   16) = (   0.0416667   0.1250000   0.0000000), wk =   0.0416667
        k(   17) = (   0.0416667   0.1666667   0.0000000), wk =   0.0416667
        k(   18) = (   0.0416667   0.2083333   0.0000000), wk =   0.0416667
        k(   19) = (   0.0416667   0.2500000   0.0000000), wk =   0.0416667
        k(   20) = (   0.0416667   0.2916667   0.0000000), wk =   0.0416667
        k(   21) = (   0.0416667   0.3333333   0.0000000), wk =   0.0416667
        k(   22) = (   0.0416667   0.3750000   0.0000000), wk =   0.0416667
        k(   23) = (   0.0416667   0.4166667   0.0000000), wk =   0.0416667
        k(   24) = (   0.0416667   0.4583333   0.0000000), wk =   0.0416667
        k(   25) = (   0.0833333   0.0833333   0.0000000), wk =   0.0208333
        k(   26) = (   0.0833333   0.1250000   0.0000000), wk =   0.0416667
        k(   27) = (   0.0833333   0.1666667   0.0000000), wk =   0.0416667
        k(   28) = (   0.0833333   0.2083333   0.0000000), wk =   0.0416667
        k(   29) = (   0.0833333   0.2500000   0.0000000), wk =   0.0416667
        k(   30) = (   0.0833333   0.2916667   0.0000000), wk =   0.0416667
        k(   31) = (   0.0833333   0.3333333   0.0000000), wk =   0.0416667
        k(   32) = (   0.0833333   0.3750000   0.0000000), wk =   0.0416667
        k(   33) = (   0.0833333   0.4166667   0.0000000), wk =   0.0416667
        k(   34) = (   0.0833333   0.4583333   0.0000000), wk =   0.0208333
        k(   35) = (   0.1250000   0.1250000   0.0000000), wk =   0.0208333
        k(   36) = (   0.1250000   0.1666667   0.0000000), wk =   0.0416667
        k(   37) = (   0.1250000   0.2083333   0.0000000), wk =   0.0416667
        k(   38) = (   0.1250000   0.2500000   0.0000000), wk =   0.0416667
        k(   39) = (   0.1250000   0.2916667   0.0000000), wk =   0.0416667
        k(   40) = (   0.1250000   0.3333333   0.0000000), wk =   0.0416667
        k(   41) = (   0.1250000   0.3750000   0.0000000), wk =   0.0416667
        k(   42) = (   0.1250000   0.4166667   0.0000000), wk =   0.0416667
        k(   43) = (   0.1666667   0.1666667   0.0000000), wk =   0.0208333
        k(   44) = (   0.1666667   0.2083333   0.0000000), wk =   0.0416667
        k(   45) = (   0.1666667   0.2500000   0.0000000), wk =   0.0416667
        k(   46) = (   0.1666667   0.2916667   0.0000000), wk =   0.0416667
        k(   47) = (   0.1666667   0.3333333   0.0000000), wk =   0.0416667
        k(   48) = (   0.1666667   0.3750000   0.0000000), wk =   0.0416667
        k(   49) = (   0.1666667   0.4166667   0.0000000), wk =   0.0208333
        k(   50) = (   0.2083333   0.2083333   0.0000000), wk =   0.0208333
        k(   51) = (   0.2083333   0.2500000   0.0000000), wk =   0.0416667
        k(   52) = (   0.2083333   0.2916667   0.0000000), wk =   0.0416667
        k(   53) = (   0.2083333   0.3333333   0.0000000), wk =   0.0416667
        k(   54) = (   0.2083333   0.3750000   0.0000000), wk =   0.0416667
        k(   55) = (   0.2500000   0.2500000   0.0000000), wk =   0.0208333
        k(   56) = (   0.2500000   0.2916667   0.0000000), wk =   0.0416667
        k(   57) = (   0.2500000   0.3333333   0.0000000), wk =   0.0416667
        k(   58) = (   0.2500000   0.3750000   0.0000000), wk =   0.0208333
        k(   59) = (   0.2916667   0.2916667   0.0000000), wk =   0.0208333
        k(   60) = (   0.2916667   0.3333333   0.0000000), wk =   0.0416667
        k(   61) = (   0.3333333   0.3333333   0.0000000), wk =   0.0069444

     Dense  grid:    18099 G-vectors     FFT dimensions: (  24,  24,  90)

     Dynamical RAM for                 wfc:       0.27 MB

     Dynamical RAM for     wfc (w. buffer):       0.27 MB

     Dynamical RAM for           str. fact:       0.28 MB

     Dynamical RAM for           local pot:       0.00 MB

     Dynamical RAM for          nlocal pot:       0.55 MB

     Dynamical RAM for                qrad:       0.25 MB

     Dynamical RAM for          rho,v,vnew:       2.02 MB

     Dynamical RAM for           G-vectors:       1.17 MB

     Dynamical RAM for          h,s,v(r/c):       0.05 MB

     Dynamical RAM for          <psi|beta>:       0.00 MB

     Dynamical RAM for                 psi:       1.10 MB

     Dynamical RAM for                hpsi:       1.10 MB

     Dynamical RAM for                spsi:       1.10 MB

     Dynamical RAM for      wfcinit/wfcrot:       0.55 MB

     Dynamical RAM for           addusdens:      12.43 MB

     Estimated static dynamical RAM per process >       7.06 MB

     Estimated max dynamical RAM per process >      19.49 MB
     Message from routine read_upf::
     Pseudo file C.pbe-n-kjpaw_psl.0.1.UPF has been fixed on the fly.
To avoid this message in the future, permanently fix 
 your pseudo files following these instructions: 
https://gitlab.com/QEF/q-e/blob/master/upftools/how_to_fix_upf.md
               file C.pbe-n-kjpaw_psl.0.1.UPF: wavefunction(s)  2P renormalized
     Message from routine setup:
     using ibrav=0 with symmetry is DISCOURAGED, use correct ibrav instead

     G-vector sticks info
     --------------------
     sticks:   dense  smooth     PW     G-vecs:    dense   smooth      PW
     Sum         313     313     97                18099    18099    3157


     Title: 
     2 atoms graphene fragment. NSCF                                            


     bravais-lattice index     =            0
     lattice parameter (alat)  =       4.6531  a.u.
     unit-cell volume          =     355.3177 (a.u.)^3
     number of atoms/cell      =            2
     number of atomic types    =            1
     number of electrons       =         8.00
     number of Kohn-Sham states=            8
     kinetic-energy cutoff     =      52.0000  Ry
     charge density cutoff     =     208.0000  Ry
     Exchange-correlation= SLA PW PBX PBC
                           (   1   4   3   4   0   0   0)

     celldm(1)=   4.653073  celldm(2)=   0.000000  celldm(3)=   0.000000
     celldm(4)=   0.000000  celldm(5)=   0.000000  celldm(6)=   0.000000

     crystal axes: (cart. coord. in units of alat)
               a(1) = (   1.001391   0.000000   0.000000 )  
               a(2) = (  -0.500696   0.867230   0.000000 )  
               a(3) = (   0.000000   0.000000   4.061244 )  

     reciprocal axes: (cart. coord. in units 2 pi/alat)
               b(1) = (  0.998611  0.576548 -0.000000 )  
               b(2) = (  0.000000  1.153096  0.000000 )  
               b(3) = (  0.000000 -0.000000  0.246230 )  


     PseudoPot. # 1 for C  read from file:
     ./C.pbe-n-kjpaw_psl.0.1.UPF
     MD5 check sum: 430fe95172b1e11ef3f8ed03bac87931
     Pseudo is Projector augmented-wave + core cor, Zval =  4.0
     Generated using "atomic" code by A. Dal Corso v.5.0.99 svn rev. 10869
     Shape of augmentation charge: BESSEL
     Using radial grid of 1073 points,  4 beta functions with: 
                l(1) =   0
                l(2) =   0
                l(3) =   1
                l(4) =   1
     Q(r) pseudized with 0 coefficients 


     atomic species   valence    mass     pseudopotential
        C              4.00    12.01100     C ( 1.00)

     24 Sym. Ops., with inversion, found


                                    s                        frac. trans.

      isym =  1     identity                                     

 cryst.   s( 1) = (     1          0          0      )
                  (     0          1          0      )
                  (     0          0          1      )

 cart.    s( 1) = (  1.0000000  0.0000000  0.0000000 )
                  (  0.0000000  1.0000000  0.0000000 )
                  (  0.0000000  0.0000000  1.0000000 )


      isym =  2     180 deg rotation - cart. axis [0,0,1]        

 cryst.   s( 2) = (    -1          0          0      )
                  (     0         -1          0      )
                  (     0          0          1      )

 cart.    s( 2) = ( -1.0000000  0.0000000  0.0000000 )
                  (  0.0000000 -1.0000000  0.0000000 )
                  (  0.0000000  0.0000000  1.0000000 )


      isym =  3     180 deg rotation - cart. axis [0,1,0]        

 cryst.   s( 3) = (    -1          0          0      )
                  (     1          1          0      )
                  (     0          0         -1      )

 cart.    s( 3) = ( -1.0000000  0.0000000  0.0000000 )
                  (  0.0000000  1.0000000  0.0000000 )
                  (  0.0000000  0.0000000 -1.0000000 )


      isym =  4     180 deg rotation - cart. axis [1,0,0]        

 cryst.   s( 4) = (     1          0          0      )
                  (    -1         -1          0      )
                  (     0          0         -1      )

 cart.    s( 4) = (  1.0000000 -0.0000000  0.0000000 )
                  (  0.0000000 -1.0000000  0.0000000 )
                  (  0.0000000  0.0000000 -1.0000000 )


      isym =  5      60 deg rotation - cryst. axis [0,0,1]       

 cryst.   s( 5) = (     1          1          0      )
                  (    -1          0          0      )
                  (     0          0          1      )

 cart.    s( 5) = (  0.5000000 -0.8660254  0.0000000 )
                  (  0.8660254  0.5000000  0.0000000 )
                  (  0.0000000  0.0000000  1.0000000 )


      isym =  6      60 deg rotation - cryst. axis [0,0,-1]      

 cryst.   s( 6) = (     0         -1          0      )
                  (     1          1          0      )
                  (     0          0          1      )

 cart.    s( 6) = (  0.5000000  0.8660254  0.0000000 )
                  ( -0.8660254  0.5000000  0.0000000 )
                  (  0.0000000  0.0000000  1.0000000 )


      isym =  7     120 deg rotation - cryst. axis [0,0,1]       

 cryst.   s( 7) = (     0          1          0      )
                  (    -1         -1          0      )
                  (     0          0          1      )

 cart.    s( 7) = ( -0.5000000 -0.8660254  0.0000000 )
                  (  0.8660254 -0.5000000  0.0000000 )
                  (  0.0000000  0.0000000  1.0000000 )


      isym =  8     120 deg rotation - cryst. axis [0,0,-1]      

 cryst.   s( 8) = (    -1         -1          0      )
                  (     1          0          0      )
                  (     0          0          1      )

 cart.    s( 8) = ( -0.5000000  0.8660254  0.0000000 )
                  ( -0.8660254 -0.5000000  0.0000000 )
                  (  0.0000000  0.0000000  1.0000000 )


      isym =  9     180 deg rotation - cryst. axis [1,-1,0]      

 cryst.   s( 9) = (     0         -1          0      )
                  (    -1          0          0      )
                  (     0          0         -1      )

 cart.    s( 9) = (  0.5000000 -0.8660254  0.0000000 )
                  ( -0.8660254 -0.5000000  0.0000000 )
                  (  0.0000000  0.0000000 -1.0000000 )


      isym = 10     180 deg rotation - cryst. axis [2,1,0]       

 cryst.   s(10) = (     1          1          0      )
                  (     0         -1          0      )
                  (     0          0         -1      )

 cart.    s(10) = (  0.5000000  0.8660254  0.0000000 )
                  (  0.8660254 -0.5000000  0.0000000 )
                  (  0.0000000  0.0000000 -1.0000000 )


      isym = 11     180 deg rotation - cryst. axis [0,1,0]       

 cryst.   s(11) = (    -1         -1          0      )
                  (     0          1          0      )
                  (     0          0         -1      )

 cart.    s(11) = ( -0.5000000 -0.8660254  0.0000000 )
                  ( -0.8660254  0.5000000  0.0000000 )
                  (  0.0000000  0.0000000 -1.0000000 )


      isym = 12     180 deg rotation - cryst. axis [1,1,0]       

 cryst.   s(12) = (     0          1          0      )
                  (     1          0          0      )
                  (     0          0         -1      )

 cart.    s(12) = ( -0.5000000  0.8660254  0.0000000 )
                  (  0.8660254  0.5000000  0.0000000 )
                  (  0.0000000  0.0000000 -1.0000000 )


      isym = 13     inversion                                    

 cryst.   s(13) = (    -1          0          0      )
                  (     0         -1          0      )
                  (     0          0         -1      )

 cart.    s(13) = ( -1.0000000  0.0000000  0.0000000 )
                  (  0.0000000 -1.0000000  0.0000000 )
                  (  0.0000000  0.0000000 -1.0000000 )


      isym = 14     inv. 180 deg rotation - cart. axis [0,0,1]   

 cryst.   s(14) = (     1          0          0      )
                  (     0          1          0      )
                  (     0          0         -1      )

 cart.    s(14) = (  1.0000000  0.0000000  0.0000000 )
                  (  0.0000000  1.0000000  0.0000000 )
                  (  0.0000000  0.0000000 -1.0000000 )


      isym = 15     inv. 180 deg rotation - cart. axis [0,1,0]   

 cryst.   s(15) = (     1          0          0      )
                  (    -1         -1          0      )
                  (     0          0          1      )

 cart.    s(15) = (  1.0000000 -0.0000000  0.0000000 )
                  (  0.0000000 -1.0000000  0.0000000 )
                  (  0.0000000  0.0000000  1.0000000 )


      isym = 16     inv. 180 deg rotation - cart. axis [1,0,0]   

 cryst.   s(16) = (    -1          0          0      )
                  (     1          1          0      )
                  (     0          0          1      )

 cart.    s(16) = ( -1.0000000  0.0000000  0.0000000 )
                  (  0.0000000  1.0000000  0.0000000 )
                  (  0.0000000  0.0000000  1.0000000 )


      isym = 17     inv.  60 deg rotation - cryst. axis [0,0,1]  

 cryst.   s(17) = (    -1         -1          0      )
                  (     1          0          0      )
                  (     0          0         -1      )

 cart.    s(17) = ( -0.5000000  0.8660254  0.0000000 )
                  ( -0.8660254 -0.5000000  0.0000000 )
                  (  0.0000000  0.0000000 -1.0000000 )


      isym = 18     inv.  60 deg rotation - cryst. axis [0,0,-1] 

 cryst.   s(18) = (     0          1          0      )
                  (    -1         -1          0      )
                  (     0          0         -1      )

 cart.    s(18) = ( -0.5000000 -0.8660254  0.0000000 )
                  (  0.8660254 -0.5000000  0.0000000 )
                  (  0.0000000  0.0000000 -1.0000000 )


      isym = 19     inv. 120 deg rotation - cryst. axis [0,0,1]  

 cryst.   s(19) = (     0         -1          0      )
                  (     1          1          0      )
                  (     0          0         -1      )

 cart.    s(19) = (  0.5000000  0.8660254  0.0000000 )
                  ( -0.8660254  0.5000000  0.0000000 )
                  (  0.0000000  0.0000000 -1.0000000 )


      isym = 20     inv. 120 deg rotation - cryst. axis [0,0,-1] 

 cryst.   s(20) = (     1          1          0      )
                  (    -1          0          0      )
                  (     0          0         -1      )

 cart.    s(20) = (  0.5000000 -0.8660254  0.0000000 )
                  (  0.8660254  0.5000000  0.0000000 )
                  (  0.0000000  0.0000000 -1.0000000 )


      isym = 21     inv. 180 deg rotation - cryst. axis [1,-1,0] 

 cryst.   s(21) = (     0          1          0      )
                  (     1          0          0      )
                  (     0          0          1      )

 cart.    s(21) = ( -0.5000000  0.8660254  0.0000000 )
                  (  0.8660254  0.5000000  0.0000000 )
                  (  0.0000000  0.0000000  1.0000000 )


      isym = 22     inv. 180 deg rotation - cryst. axis [2,1,0]  

 cryst.   s(22) = (    -1         -1          0      )
                  (     0          1          0      )
                  (     0          0          1      )

 cart.    s(22) = ( -0.5000000 -0.8660254  0.0000000 )
                  ( -0.8660254  0.5000000  0.0000000 )
                  (  0.0000000  0.0000000  1.0000000 )


      isym = 23     inv. 180 deg rotation - cryst. axis [0,1,0]  

 cryst.   s(23) = (     1          1          0      )
                  (     0         -1          0      )
                  (     0          0          1      )

 cart.    s(23) = (  0.5000000  0.8660254  0.0000000 )
                  (  0.8660254 -0.5000000  0.0000000 )
                  (  0.0000000  0.0000000  1.0000000 )


      isym = 24     inv. 180 deg rotation - cryst. axis [1,1,0]  

 cryst.   s(24) = (     0         -1          0      )
                  (    -1          0          0      )
                  (     0          0          1      )

 cart.    s(24) = (  0.5000000 -0.8660254  0.0000000 )
                  ( -0.8660254 -0.5000000  0.0000000 )
                  (  0.0000000  0.0000000  1.0000000 )


   Cartesian axes

     site n.     atom                  positions (alat units)
         1           C   tau(   1) = (   0.0000000   0.5781535   2.0306218  )
         2           C   tau(   2) = (   0.5006957   0.2890768   2.0306218  )

   Crystallographic axes

     site n.     atom                  positions (cryst. coord.)
         1           C   tau(   1) = (  0.3333333  0.6666667  0.5000000  )
         2           C   tau(   2) = (  0.6666667  0.3333333  0.5000000  )

     number of k points=    61 (tetrahedron method)
                       cart. coord. in units 2pi/alat
        k(    1) = (   0.0000000   0.0000000   0.0000000), wk =   0.0034722
        k(    2) = (   0.0000000   0.0480457   0.0000000), wk =   0.0208333
        k(    3) = (   0.0000000   0.0960914   0.0000000), wk =   0.0208333
        k(    4) = (   0.0000000   0.1441370   0.0000000), wk =   0.0208333
        k(    5) = (   0.0000000   0.1921827   0.0000000), wk =   0.0208333
        k(    6) = (   0.0000000   0.2402284   0.0000000), wk =   0.0208333
        k(    7) = (   0.0000000   0.2882741   0.0000000), wk =   0.0208333
        k(    8) = (   0.0000000   0.3363197   0.0000000), wk =   0.0208333
        k(    9) = (   0.0000000   0.3843654   0.0000000), wk =   0.0208333
        k(   10) = (   0.0000000   0.4324111   0.0000000), wk =   0.0208333
        k(   11) = (   0.0000000   0.4804568   0.0000000), wk =   0.0208333
        k(   12) = (   0.0000000   0.5285024   0.0000000), wk =   0.0208333
        k(   13) = (   0.0000000  -0.5765481   0.0000000), wk =   0.0104167
        k(   14) = (   0.0416088   0.0720685   0.0000000), wk =   0.0208333
        k(   15) = (   0.0416088   0.1201142   0.0000000), wk =   0.0416667
        k(   16) = (   0.0416088   0.1681599   0.0000000), wk =   0.0416667
        k(   17) = (   0.0416088   0.2162055   0.0000000), wk =   0.0416667
        k(   18) = (   0.0416088   0.2642512   0.0000000), wk =   0.0416667
        k(   19) = (   0.0416088   0.3122969   0.0000000), wk =   0.0416667
        k(   20) = (   0.0416088   0.3603426   0.0000000), wk =   0.0416667
        k(   21) = (   0.0416088   0.4083882   0.0000000), wk =   0.0416667
        k(   22) = (   0.0416088   0.4564339   0.0000000), wk =   0.0416667
        k(   23) = (   0.0416088   0.5044796   0.0000000), wk =   0.0416667
        k(   24) = (   0.0416088   0.5525253   0.0000000), wk =   0.0416667
        k(   25) = (   0.0832176   0.1441370   0.0000000), wk =   0.0208333
        k(   26) = (   0.0832176   0.1921827   0.0000000), wk =   0.0416667
        k(   27) = (   0.0832176   0.2402284   0.0000000), wk =   0.0416667
        k(   28) = (   0.0832176   0.2882741   0.0000000), wk =   0.0416667
        k(   29) = (   0.0832176   0.3363197   0.0000000), wk =   0.0416667
        k(   30) = (   0.0832176   0.3843654   0.0000000), wk =   0.0416667
        k(   31) = (   0.0832176   0.4324111   0.0000000), wk =   0.0416667
        k(   32) = (   0.0832176   0.4804568   0.0000000), wk =   0.0416667
        k(   33) = (   0.0832176   0.5285024   0.0000000), wk =   0.0416667
        k(   34) = (   0.0832176   0.5765481   0.0000000), wk =   0.0208333
        k(   35) = (   0.1248263   0.2162055   0.0000000), wk =   0.0208333
        k(   36) = (   0.1248263   0.2642512   0.0000000), wk =   0.0416667
        k(   37) = (   0.1248263   0.3122969   0.0000000), wk =   0.0416667
        k(   38) = (   0.1248263   0.3603426   0.0000000), wk =   0.0416667
        k(   39) = (   0.1248263   0.4083882   0.0000000), wk =   0.0416667
        k(   40) = (   0.1248263   0.4564339   0.0000000), wk =   0.0416667
        k(   41) = (   0.1248263   0.5044796   0.0000000), wk =   0.0416667
        k(   42) = (   0.1248263   0.5525253   0.0000000), wk =   0.0416667
        k(   43) = (   0.1664351   0.2882741   0.0000000), wk =   0.0208333
        k(   44) = (   0.1664351   0.3363197   0.0000000), wk =   0.0416667
        k(   45) = (   0.1664351   0.3843654   0.0000000), wk =   0.0416667
        k(   46) = (   0.1664351   0.4324111   0.0000000), wk =   0.0416667
        k(   47) = (   0.1664351   0.4804568   0.0000000), wk =   0.0416667
        k(   48) = (   0.1664351   0.5285024   0.0000000), wk =   0.0416667
        k(   49) = (   0.1664351   0.5765481   0.0000000), wk =   0.0208333
        k(   50) = (   0.2080439   0.3603426   0.0000000), wk =   0.0208333
        k(   51) = (   0.2080439   0.4083882   0.0000000), wk =   0.0416667
        k(   52) = (   0.2080439   0.4564339   0.0000000), wk =   0.0416667
        k(   53) = (   0.2080439   0.5044796   0.0000000), wk =   0.0416667
        k(   54) = (   0.2080439   0.5525253   0.0000000), wk =   0.0416667
        k(   55) = (   0.2496527   0.4324111   0.0000000), wk =   0.0208333
        k(   56) = (   0.2496527   0.4804568   0.0000000), wk =   0.0416667
        k(   57) = (   0.2496527   0.5285024   0.0000000), wk =   0.0416667
        k(   58) = (   0.2496527   0.5765481   0.0000000), wk =   0.0208333
        k(   59) = (   0.2912614   0.5044796   0.0000000), wk =   0.0208333
        k(   60) = (   0.2912614   0.5525253   0.0000000), wk =   0.0416667
        k(   61) = (   0.3328702   0.5765481   0.0000000), wk =   0.0069444

                       cryst. coord.
        k(    1) = (   0.0000000   0.0000000   0.0000000), wk =   0.0034722
        k(    2) = (   0.0000000   0.0416667   0.0000000), wk =   0.0208333
        k(    3) = (   0.0000000   0.0833333   0.0000000), wk =   0.0208333
        k(    4) = (   0.0000000   0.1250000   0.0000000), wk =   0.0208333
        k(    5) = (   0.0000000   0.1666667   0.0000000), wk =   0.0208333
        k(    6) = (   0.0000000   0.2083333   0.0000000), wk =   0.0208333
        k(    7) = (   0.0000000   0.2500000   0.0000000), wk =   0.0208333
        k(    8) = (   0.0000000   0.2916667   0.0000000), wk =   0.0208333
        k(    9) = (   0.0000000   0.3333333   0.0000000), wk =   0.0208333
        k(   10) = (   0.0000000   0.3750000   0.0000000), wk =   0.0208333
        k(   11) = (   0.0000000   0.4166667   0.0000000), wk =   0.0208333
        k(   12) = (   0.0000000   0.4583333   0.0000000), wk =   0.0208333
        k(   13) = (   0.0000000  -0.5000000   0.0000000), wk =   0.0104167
        k(   14) = (   0.0416667   0.0416667   0.0000000), wk =   0.0208333
        k(   15) = (   0.0416667   0.0833333   0.0000000), wk =   0.0416667
        k(   16) = (   0.0416667   0.1250000   0.0000000), wk =   0.0416667
        k(   17) = (   0.0416667   0.1666667   0.0000000), wk =   0.0416667
        k(   18) = (   0.0416667   0.2083333   0.0000000), wk =   0.0416667
        k(   19) = (   0.0416667   0.2500000   0.0000000), wk =   0.0416667
        k(   20) = (   0.0416667   0.2916667   0.0000000), wk =   0.0416667
        k(   21) = (   0.0416667   0.3333333   0.0000000), wk =   0.0416667
        k(   22) = (   0.0416667   0.3750000   0.0000000), wk =   0.0416667
        k(   23) = (   0.0416667   0.4166667   0.0000000), wk =   0.0416667
        k(   24) = (   0.0416667   0.4583333   0.0000000), wk =   0.0416667
        k(   25) = (   0.0833333   0.0833333   0.0000000), wk =   0.0208333
        k(   26) = (   0.0833333   0.1250000   0.0000000), wk =   0.0416667
        k(   27) = (   0.0833333   0.1666667   0.0000000), wk =   0.0416667
        k(   28) = (   0.0833333   0.2083333   0.0000000), wk =   0.0416667
        k(   29) = (   0.0833333   0.2500000   0.0000000), wk =   0.0416667
        k(   30) = (   0.0833333   0.2916667   0.0000000), wk =   0.0416667
        k(   31) = (   0.0833333   0.3333333   0.0000000), wk =   0.0416667
        k(   32) = (   0.0833333   0.3750000   0.0000000), wk =   0.0416667
        k(   33) = (   0.0833333   0.4166667   0.0000000), wk =   0.0416667
        k(   34) = (   0.0833333   0.4583333   0.0000000), wk =   0.0208333
        k(   35) = (   0.1250000   0.1250000   0.0000000), wk =   0.0208333
        k(   36) = (   0.1250000   0.1666667   0.0000000), wk =   0.0416667
        k(   37) = (   0.1250000   0.2083333   0.0000000), wk =   0.0416667
        k(   38) = (   0.1250000   0.2500000   0.0000000), wk =   0.0416667
        k(   39) = (   0.1250000   0.2916667   0.0000000), wk =   0.0416667
        k(   40) = (   0.1250000   0.3333333   0.0000000), wk =   0.0416667
        k(   41) = (   0.1250000   0.3750000   0.0000000), wk =   0.0416667
        k(   42) = (   0.1250000   0.4166667   0.0000000), wk =   0.0416667
        k(   43) = (   0.1666667   0.1666667   0.0000000), wk =   0.0208333
        k(   44) = (   0.1666667   0.2083333   0.0000000), wk =   0.0416667
        k(   45) = (   0.1666667   0.2500000   0.0000000), wk =   0.0416667
        k(   46) = (   0.1666667   0.2916667   0.0000000), wk =   0.0416667
        k(   47) = (   0.1666667   0.3333333   0.0000000), wk =   0.0416667
        k(   48) = (   0.1666667   0.3750000   0.0000000), wk =   0.0416667
        k(   49) = (   0.1666667   0.4166667   0.0000000), wk =   0.0208333
        k(   50) = (   0.2083333   0.2083333   0.0000000), wk =   0.0208333
        k(   51) = (   0.2083333   0.2500000   0.0000000), wk =   0.0416667
        k(   52) = (   0.2083333   0.2916667   0.0000000), wk =   0.0416667
        k(   53) = (   0.2083333   0.3333333   0.0000000), wk =   0.0416667
        k(   54) = (   0.2083333   0.3750000   0.0000000), wk =   0.0416667
        k(   55) = (   0.2500000   0.2500000   0.0000000), wk =   0.0208333
        k(   56) = (   0.2500000   0.2916667   0.0000000), wk =   0.0416667
        k(   57) = (   0.2500000   0.3333333   0.0000000), wk =   0.0416667
        k(   58) = (   0.2500000   0.3750000   0.0000000), wk =   0.0208333
        k(   59) = (   0.2916667   0.2916667   0.0000000), wk =   0.0208333
        k(   60) = (   0.2916667   0.3333333   0.0000000), wk =   0.0416667
        k(   61) = (   0.3333333   0.3333333   0.0000000), wk =   0.0069444

     Dense  grid:    18099 G-vectors     FFT dimensions: (  24,  24,  90)

     Dynamical RAM for                 wfc:       0.27 MB

     Dynamical RAM for     wfc (w. buffer):       0.27 MB

     Dynamical RAM for           str. fact:       0.28 MB

     Dynamical RAM for           local pot:       0.00 MB

     Dynamical RAM for          nlocal pot:       0.55 MB

     Dynamical RAM for                qrad:       0.25 MB

     Dynamical RAM for          rho,v,vnew:       2.02 MB

[...]
     wfcinit:wfcr :      0.53s CPU      0.72s WALL (      61 calls)
     potinit      :      0.08s CPU      0.17s WALL (       1 calls)
     hinit0       :      0.16s CPU      0.31s WALL (       1 calls)

     Called by electrons:
     c_bands      :     10.60s CPU     19.30s WALL (       1 calls)
     v_of_rho     :      0.02s CPU      0.05s WALL (       1 calls)
     v_h          :      0.00s CPU      0.00s WALL (       1 calls)
     v_xc         :      0.02s CPU      0.04s WALL (       1 calls)
     newd         :      0.01s CPU      0.02s WALL (       1 calls)
     PAW_pot      :      0.06s CPU      0.12s WALL (       1 calls)

     Called by c_bands:
     init_us_2    :      0.02s CPU      0.03s WALL (      61 calls)
     cegterg      :      9.96s CPU     18.21s WALL (     106 calls)

     Called by sum_band:

     Called by *egterg:
     h_psi        :      7.81s CPU     13.93s WALL (    1692 calls)
     s_psi        :      0.30s CPU      0.58s WALL (    1692 calls)
     g_psi        :      0.04s CPU      0.06s WALL (    1525 calls)
     cdiaghg      :      0.18s CPU      0.32s WALL (    1586 calls)
     cegterg:over :      0.87s CPU      1.68s WALL (    1525 calls)
     cegterg:upda :      0.61s CPU      1.07s WALL (    1525 calls)
     cegterg:last :      0.54s CPU      0.96s WALL (     338 calls)

     Called by h_psi:
     h_psi:calbec :      0.42s CPU      0.76s WALL (    1692 calls)
     vloc_psi     :      7.04s CPU     12.59s WALL (    1692 calls)
     add_vuspsi   :      0.31s CPU      0.54s WALL (    1692 calls)

     General routines
     calbec       :      0.42s CPU      0.75s WALL (    1692 calls)
     fft          :      0.01s CPU      0.01s WALL (      12 calls)
     fftw         :      6.26s CPU     11.12s WALL (   15806 calls)
     davcio       :      0.01s CPU      0.05s WALL (     122 calls)


     PAW routines
     PAW_pot      :      0.06s CPU      0.12s WALL (       1 calls)

     PWSCF        :     11.14s CPU     20.16s WALL


   This run was terminated on:  16:59:35  13May2020            

=------------------------------------------------------------------------------=
   JOB DONE.
=------------------------------------------------------------------------------=
     total cpu time spent up to now is       20.3 secs

     Computing kpt #:    59  of    61
     total cpu time spent up to now is       20.5 secs

     Computing kpt #:    60  of    61
     total cpu time spent up to now is       20.6 secs

     Computing kpt #:    61  of    61
     total cpu time spent up to now is       20.8 secs

     ethr =  1.25E-08,  avg # of iterations = 25.0

     total cpu time spent up to now is       20.8 secs

     End of band structure calculation

          k = 0.0000 0.0000 0.0000 (  2287 PWs)   bands (ev):

   -19.9798  -8.0728  -3.5076  -3.5076   2.5728   4.2123   5.2339   7.8574

     occupation numbers 
     1.0000   1.0000   1.0000   1.0000   0.0000   0.0000   0.0000   0.0000

          k = 0.0000 0.0480 0.0000 (  2273 PWs)   bands (ev):

   -19.9388  -8.0237  -3.6765  -3.5966   2.6288   4.2677   5.2889   7.8815

     occupation numbers 
     1.0000   1.0000   1.0000   1.0000   0.0000   0.0000   0.0000   0.0000

          k = 0.0000 0.0961 0.0000 (  2281 PWs)   bands (ev):

   -19.8159  -7.8768  -4.1580  -3.8456   2.7968   4.4339   5.4539   7.9256

     occupation numbers 
     1.0000   1.0000   1.0000   1.0000   0.0000   0.0000   0.0000   0.0000

          k = 0.0000 0.1441 0.0000 (  2273 PWs)   bands (ev):

   -19.6114  -7.6331  -4.8884  -4.2096   3.0769   4.7103   5.7290   7.9353

     occupation numbers 
     1.0000   1.0000   1.0000   1.0000   0.0000   0.0000   0.0000   0.0000

          k = 0.0000 0.1922 0.0000 (  2269 PWs)   bands (ev):

   -19.3258  -7.2943  -5.7952  -4.6372   3.4689   5.0957   6.1134   7.8795

     occupation numbers 
     1.0000   1.0000   1.0000   1.0000   0.0000   0.0000   0.0000   0.0000

          k = 0.0000 0.2402 0.0000 (  2273 PWs)   bands (ev):

   -18.9601  -6.8632  -6.8135  -5.0839   3.9725   5.5865   6.6039   7.7669

     occupation numbers 
     1.0000   1.0000   1.0000   1.0000   0.0000   0.0000   0.0000   0.0000

          k = 0.0000 0.2883 0.0000 (  2247 PWs)   bands (ev):

   -18.5154  -7.8931  -6.3443  -5.5160   4.5873   6.1441   6.8606   7.1741

     occupation numbers 
     1.0000   1.0000   1.0000   1.0000   0.0000   0.0000   0.0000   0.0000

          k = 0.0000 0.3363 0.0000 (  2247 PWs)   bands (ev):

   -17.9935  -8.9966  -5.9098  -5.7449   5.3121   5.6030   6.9622   7.3775

     occupation numbers 
     1.0000   1.0000   1.0000   1.0000   0.0000   0.0000   0.0000   0.0000

          k = 0.0000 0.3844 0.0000 (  2241 PWs)   bands (ev):

   -17.3968 -10.0961  -6.2487  -5.0771   4.4588   6.1438   7.2494   7.7626

     occupation numbers 
     1.0000   1.0000   1.0000   1.0000   0.0000   0.0000   0.0000   0.0000

          k = 0.0000 0.4324 0.0000 (  2236 PWs)   bands (ev):

   -16.7297 -11.1697  -6.5216  -4.3644   3.3389   6.9991   7.2096   8.6801

     occupation numbers 
     1.0000   1.0000   1.0000   1.0000   0.0000   0.0000   0.0000   0.0000

          k = 0.0000 0.4805 0.0000 (  2244 PWs)   bands (ev):

   -16.0013 -12.1960  -6.7212  -3.6556   2.3242   6.9992   8.1608   9.6969

     occupation numbers 
     1.0000   1.0000   1.0000   1.0000   0.0000   0.0000   0.0000   0.0000

          k = 0.0000 0.5285 0.0000 (  2244 PWs)   bands (ev):

   -15.2444 -13.1346  -6.8426  -3.0635   1.5429   6.9408   9.3103  10.7982

     occupation numbers 
     1.0000   1.0000   1.0000   1.0000   0.0000   0.0000   0.0000   0.0000

          k = 0.0000-0.5765 0.0000 (  2264 PWs)   bands (ev):

   -14.7399 -13.7002  -6.8834  -2.8116   1.2269   6.9203  10.4950  10.6282

     occupation numbers 
     1.0000   1.0000   1.0000   1.0000   0.0000   0.0000   0.0000   0.0000

          k = 0.0416 0.0721 0.0000 (  2265 PWs)   bands (ev):

   -19.8569  -7.9257  -3.9925  -3.7749   2.7408   4.3785   5.3989   7.9413

     occupation numbers 
     1.0000   1.0000   1.0000   1.0000   0.0000   0.0000   0.0000   0.0000

          k = 0.0416 0.1201 0.0000 (  2271 PWs)   bands (ev):

   -19.6931  -7.7304  -4.5776  -4.1026   2.9649   4.5998   5.6191   8.0225

     occupation numbers 
     1.0000   1.0000   1.0000   1.0000   0.0000   0.0000   0.0000   0.0000

          k = 0.0416 0.1682 0.0000 (  2274 PWs)   bands (ev):

   -19.4481  -7.4391  -5.3750  -4.5201   3.3010   4.9309   5.9494   8.0442

     occupation numbers 
     1.0000   1.0000   1.0000   1.0000   0.0000   0.0000   0.0000   0.0000

          k = 0.0416 0.2162 0.0000 (  2272 PWs)   bands (ev):

   -19.1225  -7.0540  -6.3208  -4.9746   3.7489   5.3699   6.3884   7.9844

     occupation numbers 
     1.0000   1.0000   1.0000   1.0000   0.0000   0.0000   0.0000   0.0000

          k = 0.0416 0.2643 0.0000 (  2270 PWs)   bands (ev):

   -18.7173  -7.3578  -6.5787  -5.4264   4.3082   5.9076   6.9303   7.3223

     occupation numbers 
     1.0000   1.0000   1.0000   1.0000   0.0000   0.0000   0.0000   0.0000

          k = 0.0416 0.3123 0.0000 (  2253 PWs)   bands (ev):

   -18.2340  -8.4413  -6.0188  -5.8477   4.9783   6.0983   6.6730   7.4928

     occupation numbers 
     1.0000   1.0000   1.0000   1.0000   0.0000   0.0000   0.0000   0.0000

          k = 0.0416 0.3603 0.0000 (  2240 PWs)   bands (ev):

   -17.6746  -9.5375  -6.2195  -5.3835   5.0062   5.7576   7.3789   7.4964

     occupation numbers 
     1.0000   1.0000   1.0000   1.0000   0.0000   0.0000   0.0000   0.0000

          k = 0.0416 0.4084 0.0000 (  2236 PWs)   bands (ev):

   -17.0424 -10.6208  -6.5288  -4.6896   3.8718   6.6398   7.3713   8.2415

     occupation numbers 
     1.0000   1.0000   1.0000   1.0000   0.0000   0.0000   0.0000   0.0000

          k = 0.0416 0.4564 0.0000 (  2242 PWs)   bands (ev):

   -16.3435 -11.6697  -6.7672  -3.9699   2.7995   7.2164   7.6775   9.2071

     occupation numbers 
     1.0000   1.0000   1.0000   1.0000   0.0000   0.0000   0.0000   0.0000

          k = 0.0416 0.5045 0.0000 (  2250 PWs)   bands (ev):

   -15.5938 -12.6579  -6.9288  -3.2981   1.8829   7.1515   8.7632  10.2625

     occupation numbers 
     1.0000   1.0000   1.0000   1.0000   0.0000   0.0000   0.0000   0.0000

          k = 0.0416 0.5525 0.0000 (  2254 PWs)   bands (ev):

   -14.8793 -13.4931  -7.0105  -2.8412   1.3008   7.1114   9.9613  11.2578

     occupation numbers 
     1.0000   1.0000   1.0000   1.0000   0.0000   0.0000   0.0000   0.0000

          k = 0.0832 0.1441 0.0000 (  2265 PWs)   bands (ev):

   -19.4889  -7.4874  -5.1914  -4.5224   3.2451   4.8759   5.8949   8.2252

     occupation numbers 
     1.0000   1.0000   1.0000   1.0000   0.0000   0.0000   0.0000   0.0000

          k = 0.0832 0.1922 0.0000 (  2266 PWs)   bands (ev):

   -19.2038  -7.1497  -5.9771  -5.0185   3.6371   5.2612   6.2808   8.3706

     occupation numbers 
     1.0000   1.0000   1.0000   1.0000   0.0000   0.0000   0.0000   0.0000

          k = 0.0832 0.2402 0.0000 (  2268 PWs)   bands (ev):

   -18.8387  -6.9008  -6.7200  -5.5197   4.1409   5.7524   6.7753   7.6456

     occupation numbers 
     1.0000   1.0000   1.0000   1.0000   0.0000   0.0000   0.0000   0.0000

          k = 0.0832 0.2883 0.0000 (  2256 PWs)   bands (ev):

   -18.3948  -7.9144  -6.2028  -5.9885   4.7558   6.2939   6.6639   7.3722

     occupation numbers 
     1.0000   1.0000   1.0000   1.0000   0.0000   0.0000   0.0000   0.0000

          k = 0.0832 0.3363 0.0000 (  2242 PWs)   bands (ev):

   -17.8740  -8.9734  -6.4053  -5.6050   5.4728   5.4810   7.0927   7.9663

     occupation numbers 
     1.0000   1.0000   1.0000   1.0000   0.0000   0.0000   0.0000   0.0000

          k = 0.0832 0.3844 0.0000 (  2236 PWs)   bands (ev):

   -17.2789 -10.0430  -6.7582  -4.9387   4.3599   6.3148   7.8987   7.9523

     occupation numbers 
     1.0000   1.0000   1.0000   1.0000   0.0000   0.0000   0.0000   0.0000

          k = 0.0832 0.4324 0.0000 (  2239 PWs)   bands (ev):

   -16.6138 -11.0961  -7.0396  -4.2265   3.2709   7.2485   7.8422   8.8074

     occupation numbers 
     1.0000   1.0000   1.0000   1.0000   0.0000   0.0000   0.0000   0.0000

          k = 0.0832 0.4805 0.0000 (  2240 PWs)   bands (ev):

   -15.8882 -12.1082  -7.2439  -3.5158   2.2766   7.7116   8.3304   9.8043

     occupation numbers 
     1.0000   1.0000   1.0000   1.0000   0.0000   0.0000   0.0000   0.0000

          k = 0.0832 0.5285 0.0000 (  2248 PWs)   bands (ev):

   -15.1351 -13.0368  -7.3677  -2.9182   1.5030   7.6589   9.4710  10.8611

     occupation numbers 
     1.0000   1.0000   1.0000   1.0000   0.0000   0.0000   0.0000   0.0000

          k = 0.0832 0.5765 0.0000 (  2250 PWs)   bands (ev):

   -14.6344 -13.5966  -7.4092  -2.6617   1.1869   7.6387  10.6437  10.7852

     occupation numbers 
     1.0000   1.0000   1.0000   1.0000   0.0000   0.0000   0.0000   0.0000

          k = 0.1248 0.2162 0.0000 (  2269 PWs)   bands (ev):

   -18.8792  -6.7673  -6.6904  -5.6120   4.0851   5.6999   6.7227   7.7612

     occupation numbers 
     1.0000   1.0000   1.0000   1.0000   0.0000   0.0000   0.0000   0.0000

          k = 0.1248 0.2643 0.0000 (  2262 PWs)   bands (ev):

   -18.4755  -7.5278  -6.2952  -6.1936   4.6445   6.2409   6.8298   7.2734

     occupation numbers 
     1.0000   1.0000   1.0000   1.0000   0.0000   0.0000   0.0000   0.0000

          k = 0.1248 0.3123 0.0000 (  2254 PWs)   bands (ev):

   -17.9941  -8.4719  -6.7034  -5.7389   5.3147   5.8027   6.9065   7.9279

     occupation numbers 
     1.0000   1.0000   1.0000   1.0000   0.0000   0.0000   0.0000   0.0000

          k = 0.1248 0.3603 0.0000 (  2248 PWs)   bands (ev):

   -17.4374  -9.4779  -7.1282  -5.1072   4.7483   6.0945   7.6579   8.6224

     occupation numbers 
     1.0000   1.0000   1.0000   1.0000   0.0000   0.0000   0.0000   0.0000

          k = 0.1248 0.4084 0.0000 (  2247 PWs)   bands (ev):

   -16.8088 -10.5029  -7.4682  -4.4158   3.6863   6.9821   8.5065   8.6935

     occupation numbers 
     1.0000   1.0000   1.0000   1.0000   0.0000   0.0000   0.0000   0.0000

          k = 0.1248 0.4564 0.0000 (  2236 PWs)   bands (ev):

   -16.1147 -11.5133  -7.7238  -3.6953   2.6690   7.9697   8.5992   9.4368

     occupation numbers 
     1.0000   1.0000   1.0000   1.0000   0.0000   0.0000   0.0000   0.0000

          k = 0.1248 0.5045 0.0000 (  2238 PWs)   bands (ev):

   -15.3715 -12.4755  -7.8948  -3.0158   1.7822   8.4924   9.0939  10.4157

     occupation numbers 
     1.0000   1.0000   1.0000   1.0000   0.0000   0.0000   0.0000   0.0000

          k = 0.1248 0.5525 0.0000 (  2244 PWs)   bands (ev):

   -14.6656 -13.2933  -7.9804  -2.5450   1.2049   8.4583  10.2742  11.3134

     occupation numbers 
     1.0000   1.0000   1.0000   1.0000   0.0000   0.0000   0.0000   0.0000

          k = 0.1664 0.2883 0.0000 (  2251 PWs)   bands (ev):

   -18.0342  -8.2310  -6.8810  -5.7837   5.2592   5.9268   6.8376   7.8803

     occupation numbers 
     1.0000   1.0000   1.0000   1.0000   0.0000   0.0000   0.0000   0.0000

          k = 0.1664 0.3363 0.0000 (  2245 PWs)   bands (ev):

   -17.5168  -9.0460  -7.4753  -5.1921   4.9692   5.9839   7.5307   8.5917

     occupation numbers 
     1.0000   1.0000   1.0000   1.0000   0.0000   0.0000   0.0000   0.0000

          k = 0.1664 0.3844 0.0000 (  2254 PWs)   bands (ev):

   -16.9264  -9.9582  -7.9369  -4.5316   3.9798   6.8174   8.3154   9.3802

     occupation numbers 
     1.0000   1.0000   1.0000   1.0000   0.0000   0.0000   0.0000   0.0000

          k = 0.1664 0.4324 0.0000 (  2244 PWs)   bands (ev):

   -16.2678 -10.9157  -8.2774  -3.8221   2.9940   7.7569   9.1733   9.6429

     occupation numbers 
     1.0000   1.0000   1.0000   1.0000   0.0000   0.0000   0.0000   0.0000

          k = 0.1664 0.4805 0.0000 (  2242 PWs)   bands (ev):

   -15.5508 -11.8686  -8.5127  -3.1060   2.0684   8.7953   9.5665  10.0595

     occupation numbers 
     1.0000   1.0000   1.0000   1.0000   0.0000   0.0000   0.0000   0.0000

          k = 0.1664 0.5285 0.0000 (  2241 PWs)   bands (ev):

   -14.8092 -12.7596  -8.6515  -2.4883   1.3198   9.4803   9.9568  10.8460

     occupation numbers 
     1.0000   1.0000   1.0000   1.0000   0.0000   0.0000   0.0000   0.0000

          k = 0.1664 0.5765 0.0000 (  2242 PWs)   bands (ev):

   -14.3183 -13.3016  -8.6975  -2.2139   1.0008   9.4674  11.0769  11.2027

     occupation numbers 
     1.0000   1.0000   1.0000   1.0000   0.0000   0.0000   0.0000   0.0000

          k = 0.2080 0.3603 0.0000 (  2241 PWs)   bands (ev):

   -16.9658  -9.6862  -8.1875  -4.5706   4.0871   6.7622   8.2492   9.3586

     occupation numbers 
     1.0000   1.0000   1.0000   1.0000   0.0000   0.0000   0.0000   0.0000

          k = 0.2080 0.4084 0.0000 (  2243 PWs)   bands (ev):

   -16.3448 -10.4423  -8.7388  -3.8875   3.1814   7.6473   9.0327  10.2129

     occupation numbers 
     1.0000   1.0000   1.0000   1.0000   0.0000   0.0000   0.0000   0.0000

          k = 0.2080 0.4564 0.0000 (  2247 PWs)   bands (ev):

   -15.6612 -11.2923  -9.1112  -3.1680   2.2849   8.6350   9.8210  10.7100

     occupation numbers 
     1.0000   1.0000   1.0000   1.0000   0.0000   0.0000   0.0000   0.0000

          k = 0.2080 0.5045 0.0000 (  2239 PWs)   bands (ev):

   -14.9320 -12.1640  -9.3384  -2.4709   1.4639   9.7149  10.4664  10.6544

     occupation numbers 
     1.0000   1.0000   1.0000   1.0000   0.0000   0.0000   0.0000   0.0000

          k = 0.2080 0.5525 0.0000 (  2240 PWs)   bands (ev):

   -14.2415 -12.9341  -9.4467  -1.9600   0.8891  10.5783  10.7811  10.9003

     occupation numbers 
     1.0000   1.0000   1.0000   1.0000   0.0000   0.0000   0.0000   0.0000

          k = 0.2497 0.4324 0.0000 (  2245 PWs)   bands (ev):

   -15.6984 -10.9943  -9.4193  -3.1900   2.3661   8.5803   9.7356  11.1191

     occupation numbers 
     1.0000   1.0000   1.0000   1.0000   0.0000   0.0000   0.0000   0.0000

          k = 0.2497 0.4805 0.0000 (  2243 PWs)   bands (ev):

   -14.9981 -11.6698  -9.8813  -2.4691   1.5613   9.6083  10.2504  11.7728

     occupation numbers 
     1.0000   1.0000   1.0000   1.0000   0.0000   0.0000   0.0000   0.0000

          k = 0.2497 0.5285 0.0000 (  2237 PWs)   bands (ev):

   -14.2767 -12.4151 -10.1269  -1.8053   0.8468  10.4396  10.7084  11.7296

     occupation numbers 
     1.0000   1.0000   1.0000   1.0000   0.0000   0.0000   0.0000   0.0000

          k = 0.2497 0.5765 0.0000 (  2244 PWs)   bands (ev):

   -13.7926 -12.9145 -10.2024  -1.4734   0.4979  10.4630  11.6336  11.7339

     occupation numbers 
     1.0000   1.0000   1.0000   1.0000   0.0000   0.0000   0.0000   0.0000

          k = 0.2913 0.5045 0.0000 (  2257 PWs)   bands (ev):

   -14.2969 -12.1242 -10.4653  -1.7543   0.8386  10.3133  10.6565  12.5198

     occupation numbers 
     1.0000   1.0000   1.0000   1.0000   0.0000   0.0000   0.0000   0.0000

          k = 0.2913 0.5525 0.0000 (  2249 PWs)   bands (ev):

   -13.6245 -12.6749 -10.7592  -1.1262   0.2094  10.2446  11.7068  12.4145

     occupation numbers 
     1.0000   1.0000   1.0000   1.0000  -0.0000   0.0000   0.0000   0.0000

          k = 0.3329 0.5765 0.0000 (  2244 PWs)   bands (ev):

   -13.0597 -13.0597 -11.0207  -0.4503  -0.4503  10.1562  12.3812  12.3812

     occupation numbers 
     1.0000   1.0000   1.0000   1.0000   0.0000   0.0000   0.0000   0.0000

     the Fermi energy is    -0.4503 ev

     Writing output data file ./Gr.save/

     init_run     :      0.26s CPU      0.59s WALL (       1 calls)
     electrons    :     10.62s CPU     19.73s WALL (       1 calls)

     Called by init_run:
     wfcinit      :      0.00s CPU      0.02s WALL (       1 calls)
     wfcinit:atom :      0.01s CPU      0.01s WALL (      61 calls)
     wfcinit:wfcr :      0.53s CPU      0.69s WALL (      61 calls)
     potinit      :      0.08s CPU      0.16s WALL (       1 calls)
     hinit0       :      0.16s CPU      0.34s WALL (       1 calls)

     Called by electrons:
     c_bands      :     10.61s CPU     19.73s WALL (       1 calls)
     v_of_rho     :      0.02s CPU      0.04s WALL (       1 calls)
     v_h          :      0.00s CPU      0.00s WALL (       1 calls)
     v_xc         :      0.02s CPU      0.04s WALL (       1 calls)
     newd         :      0.01s CPU      0.02s WALL (       1 calls)
     PAW_pot      :      0.06s CPU      0.12s WALL (       1 calls)

     Called by c_bands:
     init_us_2    :      0.02s CPU      0.02s WALL (      61 calls)
     cegterg      :      9.97s CPU     18.64s WALL (     106 calls)

     Called by sum_band:

     Called by *egterg:
     h_psi        :      7.82s CPU     14.02s WALL (    1692 calls)
     s_psi        :      0.30s CPU      0.54s WALL (    1692 calls)
     g_psi        :      0.04s CPU      0.08s WALL (    1525 calls)
     cdiaghg      :      0.17s CPU      0.33s WALL (    1586 calls)
     cegterg:over :      0.86s CPU      1.68s WALL (    1525 calls)
     cegterg:upda :      0.60s CPU      1.29s WALL (    1525 calls)
     cegterg:last :      0.54s CPU      1.08s WALL (     338 calls)

     Called by h_psi:
     h_psi:calbec :      0.42s CPU      0.76s WALL (    1692 calls)
     vloc_psi     :      7.06s CPU     12.64s WALL (    1692 calls)
     add_vuspsi   :      0.31s CPU      0.56s WALL (    1692 calls)

     General routines
     calbec       :      0.42s CPU      0.76s WALL (    1692 calls)
     fft          :      0.01s CPU      0.03s WALL (      12 calls)
     fftw         :      6.29s CPU     11.23s WALL (   15806 calls)
     davcio       :      0.00s CPU      0.08s WALL (     122 calls)


     PAW routines
     PAW_pot      :      0.06s CPU      0.12s WALL (       1 calls)

     PWSCF        :     11.15s CPU     20.85s WALL


   This run was terminated on:  16:59:36  13May2020            

=------------------------------------------------------------------------------=
   JOB DONE.
=------------------------------------------------------------------------------=
