
     Program PWSCF v.6.5 starts on 28Sep2020 at 15:42:47 

     This program is part of the open-source Quantum ESPRESSO suite
     for quantum simulation of materials; please cite
         "P. Giannozzi et al., J. Phys.:Condens. Matter 21 395502 (2009);
         "P. Giannozzi et al., J. Phys.:Condens. Matter 29 465901 (2017);
          URL http://www.quantum-espresso.org", 
     in publications or presentations arising from this work. More details at
     http://www.quantum-espresso.org/quote

     Parallel version (MPI), running on     2 processors

     MPI processes distributed on     1 nodes
     R & G space division:  proc/nbgrp/npool/nimage =       2
     Reading input from relax.inp

     Current dimensions of program PWSCF are:
     Max number of different atomic species (ntypx) = 10
     Max number of k-points (npk) =  40000
     Max angular momentum in pseudopotentials (lmaxx) =  3
     Message from routine read_upf::
     Pseudo file C.pbe-n-kjpaw_psl.0.1.UPF has been fixed on the fly.
To avoid this message in the future, permanently fix 
 your pseudo files following these instructions: 
https://gitlab.com/QEF/q-e/blob/master/upftools/how_to_fix_upf.md
               file C.pbe-n-kjpaw_psl.0.1.UPF: wavefunction(s)  2P renormalized

     Subspace diagonalization in iterative solution of the eigenvalue problem:
     a serial algorithm will be used


     Parallelization info
     --------------------
     sticks:   dense  smooth     PW     G-vecs:    dense   smooth      PW
     Min         156     156     48                 9024     9024    1578
     Max         157     157     49                 9027     9027    1579
     Sum         313     313     97                18051    18051    3157


     Title: 
     Unstrained graphene optimization. 2 atoms fragment. VC-RELAX               


     bravais-lattice index     =            4
     lattice parameter (alat)  =       4.6531  a.u.
     unit-cell volume          =     354.3310 (a.u.)^3
     number of atoms/cell      =            2
     number of atomic types    =            1
     number of electrons       =         8.00
     number of Kohn-Sham states=            8
     kinetic-energy cutoff     =      52.0000  Ry
     charge density cutoff     =     208.0000  Ry
     convergence threshold     =      1.0E-06
     mixing beta               =       0.7000
     number of iterations used =            8  plain     mixing
     Exchange-correlation= SLA PW PBX PBC
                           (   1   4   3   4   0   0   0)
     nstep                     =          200


     celldm(1)=   4.653073  celldm(2)=   0.000000  celldm(3)=   4.061244
     celldm(4)=   0.000000  celldm(5)=   0.000000  celldm(6)=   0.000000

     crystal axes: (cart. coord. in units of alat)
               a(1) = (   1.000000   0.000000   0.000000 )  
               a(2) = (  -0.500000   0.866025   0.000000 )  
               a(3) = (   0.000000   0.000000   4.061244 )  

     reciprocal axes: (cart. coord. in units 2 pi/alat)
               b(1) = (  1.000000  0.577350 -0.000000 )  
               b(2) = (  0.000000  1.154701  0.000000 )  
               b(3) = (  0.000000 -0.000000  0.246230 )  


     PseudoPot. # 1 for C  read from file:
     ./C.pbe-n-kjpaw_psl.0.1.UPF
     MD5 check sum: 430fe95172b1e11ef3f8ed03bac87931
     Pseudo is Projector augmented-wave + core cor, Zval =  4.0
     Generated using "atomic" code by A. Dal Corso v.5.0.99 svn rev. 10869
     Shape of augmentation charge: BESSEL
     Using radial grid of 1073 points,  4 beta functions with: 
                l(1) =   0
                l(2) =   0
                l(3) =   1
                l(4) =   1
     Q(r) pseudized with 0 coefficients 


     atomic species   valence    mass     pseudopotential
        C              4.00    12.01100     C ( 1.00)

     24 Sym. Ops., with inversion, found


                                    s                        frac. trans.

      isym =  1     identity                                     

 cryst.   s( 1) = (     1          0          0      )
                  (     0          1          0      )
                  (     0          0          1      )

 cart.    s( 1) = (  1.0000000  0.0000000  0.0000000 )
                  (  0.0000000  1.0000000  0.0000000 )
                  (  0.0000000  0.0000000  1.0000000 )


      isym =  2     180 deg rotation - cart. axis [0,0,1]        

 cryst.   s( 2) = (    -1          0          0      )
                  (     0         -1          0      )
                  (     0          0          1      )

 cart.    s( 2) = ( -1.0000000  0.0000000  0.0000000 )
                  (  0.0000000 -1.0000000  0.0000000 )
                  (  0.0000000  0.0000000  1.0000000 )


      isym =  3     180 deg rotation - cart. axis [0,1,0]        

 cryst.   s( 3) = (    -1          0          0      )
                  (     1          1          0      )
                  (     0          0         -1      )

 cart.    s( 3) = ( -1.0000000  0.0000000  0.0000000 )
                  (  0.0000000  1.0000000  0.0000000 )
                  (  0.0000000  0.0000000 -1.0000000 )


      isym =  4     180 deg rotation - cart. axis [1,0,0]        

 cryst.   s( 4) = (     1          0          0      )
                  (    -1         -1          0      )
                  (     0          0         -1      )

 cart.    s( 4) = (  1.0000000  0.0000000  0.0000000 )
                  (  0.0000000 -1.0000000  0.0000000 )
                  (  0.0000000  0.0000000 -1.0000000 )


      isym =  5      60 deg rotation - cryst. axis [0,0,1]       

 cryst.   s( 5) = (     1          1          0      )
                  (    -1          0          0      )
                  (     0          0          1      )

 cart.    s( 5) = (  0.5000000 -0.8660254  0.0000000 )
                  (  0.8660254  0.5000000  0.0000000 )
                  (  0.0000000  0.0000000  1.0000000 )


      isym =  6      60 deg rotation - cryst. axis [0,0,-1]      

 cryst.   s( 6) = (     0         -1          0      )
                  (     1          1          0      )
                  (     0          0          1      )

 cart.    s( 6) = (  0.5000000  0.8660254  0.0000000 )
                  ( -0.8660254  0.5000000  0.0000000 )
                  (  0.0000000  0.0000000  1.0000000 )


      isym =  7     120 deg rotation - cryst. axis [0,0,1]       

 cryst.   s( 7) = (     0          1          0      )
                  (    -1         -1          0      )
                  (     0          0          1      )

 cart.    s( 7) = ( -0.5000000 -0.8660254  0.0000000 )
                  (  0.8660254 -0.5000000  0.0000000 )
                  (  0.0000000  0.0000000  1.0000000 )


      isym =  8     120 deg rotation - cryst. axis [0,0,-1]      

 cryst.   s( 8) = (    -1         -1          0      )
                  (     1          0          0      )
                  (     0          0          1      )

 cart.    s( 8) = ( -0.5000000  0.8660254  0.0000000 )
                  ( -0.8660254 -0.5000000  0.0000000 )
                  (  0.0000000  0.0000000  1.0000000 )


      isym =  9     180 deg rotation - cryst. axis [1,-1,0]      

 cryst.   s( 9) = (     0         -1          0      )
                  (    -1          0          0      )
                  (     0          0         -1      )

 cart.    s( 9) = (  0.5000000 -0.8660254  0.0000000 )
                  ( -0.8660254 -0.5000000  0.0000000 )
                  (  0.0000000  0.0000000 -1.0000000 )


      isym = 10     180 deg rotation - cryst. axis [2,1,0]       

 cryst.   s(10) = (     1          1          0      )
                  (     0         -1          0      )
                  (     0          0         -1      )

 cart.    s(10) = (  0.5000000  0.8660254  0.0000000 )
                  (  0.8660254 -0.5000000  0.0000000 )
                  (  0.0000000  0.0000000 -1.0000000 )


      isym = 11     180 deg rotation - cryst. axis [0,1,0]       

 cryst.   s(11) = (    -1         -1          0      )
                  (     0          1          0      )
                  (     0          0         -1      )

 cart.    s(11) = ( -0.5000000 -0.8660254  0.0000000 )
                  ( -0.8660254  0.5000000  0.0000000 )
                  (  0.0000000  0.0000000 -1.0000000 )


      isym = 12     180 deg rotation - cryst. axis [1,1,0]       

 cryst.   s(12) = (     0          1          0      )
                  (     1          0          0      )
                  (     0          0         -1      )

 cart.    s(12) = ( -0.5000000  0.8660254  0.0000000 )
                  (  0.8660254  0.5000000  0.0000000 )
                  (  0.0000000  0.0000000 -1.0000000 )


      isym = 13     inversion                                    

 cryst.   s(13) = (    -1          0          0      )
                  (     0         -1          0      )
                  (     0          0         -1      )

 cart.    s(13) = ( -1.0000000  0.0000000  0.0000000 )
                  (  0.0000000 -1.0000000  0.0000000 )
                  (  0.0000000  0.0000000 -1.0000000 )


      isym = 14     inv. 180 deg rotation - cart. axis [0,0,1]   

 cryst.   s(14) = (     1          0          0      )
                  (     0          1          0      )
                  (     0          0         -1      )

 cart.    s(14) = (  1.0000000  0.0000000  0.0000000 )
                  (  0.0000000  1.0000000  0.0000000 )
                  (  0.0000000  0.0000000 -1.0000000 )


      isym = 15     inv. 180 deg rotation - cart. axis [0,1,0]   

 cryst.   s(15) = (     1          0          0      )
                  (    -1         -1          0      )
                  (     0          0          1      )

 cart.    s(15) = (  1.0000000  0.0000000  0.0000000 )
                  (  0.0000000 -1.0000000  0.0000000 )
                  (  0.0000000  0.0000000  1.0000000 )


      isym = 16     inv. 180 deg rotation - cart. axis [1,0,0]   

 cryst.   s(16) = (    -1          0          0      )
                  (     1          1          0      )
                  (     0          0          1      )

 cart.    s(16) = ( -1.0000000  0.0000000  0.0000000 )
                  (  0.0000000  1.0000000  0.0000000 )
                  (  0.0000000  0.0000000  1.0000000 )


      isym = 17     inv.  60 deg rotation - cryst. axis [0,0,1]  

 cryst.   s(17) = (    -1         -1          0      )
                  (     1          0          0      )
                  (     0          0         -1      )

 cart.    s(17) = ( -0.5000000  0.8660254  0.0000000 )
                  ( -0.8660254 -0.5000000  0.0000000 )
                  (  0.0000000  0.0000000 -1.0000000 )


      isym = 18     inv.  60 deg rotation - cryst. axis [0,0,-1] 

 cryst.   s(18) = (     0          1          0      )
                  (    -1         -1          0      )
                  (     0          0         -1      )

 cart.    s(18) = ( -0.5000000 -0.8660254  0.0000000 )
                  (  0.8660254 -0.5000000  0.0000000 )
                  (  0.0000000  0.0000000 -1.0000000 )


      isym = 19     inv. 120 deg rotation - cryst. axis [0,0,1]  

 cryst.   s(19) = (     0         -1          0      )
                  (     1          1          0      )
                  (     0          0         -1      )

 cart.    s(19) = (  0.5000000  0.8660254  0.0000000 )
                  ( -0.8660254  0.5000000  0.0000000 )
                  (  0.0000000  0.0000000 -1.0000000 )


      isym = 20     inv. 120 deg rotation - cryst. axis [0,0,-1] 

 cryst.   s(20) = (     1          1          0      )
                  (    -1          0          0      )
                  (     0          0         -1      )

 cart.    s(20) = (  0.5000000 -0.8660254  0.0000000 )
                  (  0.8660254  0.5000000  0.0000000 )
                  (  0.0000000  0.0000000 -1.0000000 )


      isym = 21     inv. 180 deg rotation - cryst. axis [1,-1,0] 

 cryst.   s(21) = (     0          1          0      )
                  (     1          0          0      )
                  (     0          0          1      )

 cart.    s(21) = ( -0.5000000  0.8660254  0.0000000 )
                  (  0.8660254  0.5000000  0.0000000 )
                  (  0.0000000  0.0000000  1.0000000 )


      isym = 22     inv. 180 deg rotation - cryst. axis [2,1,0]  

 cryst.   s(22) = (    -1         -1          0      )
                  (     0          1          0      )
                  (     0          0          1      )

 cart.    s(22) = ( -0.5000000 -0.8660254  0.0000000 )
                  ( -0.8660254  0.5000000  0.0000000 )
                  (  0.0000000  0.0000000  1.0000000 )


      isym = 23     inv. 180 deg rotation - cryst. axis [0,1,0]  

 cryst.   s(23) = (     1          1          0      )
                  (     0         -1          0      )
                  (     0          0          1      )

 cart.    s(23) = (  0.5000000  0.8660254  0.0000000 )
                  (  0.8660254 -0.5000000  0.0000000 )
                  (  0.0000000  0.0000000  1.0000000 )


      isym = 24     inv. 180 deg rotation - cryst. axis [1,1,0]  

 cryst.   s(24) = (     0         -1          0      )
                  (    -1          0          0      )
                  (     0          0          1      )

 cart.    s(24) = (  0.5000000 -0.8660254  0.0000000 )
                  ( -0.8660254 -0.5000000  0.0000000 )
                  (  0.0000000  0.0000000  1.0000000 )


     point group D_6h(6/mmm)
     there are 12 classes
     the character table:

       E     2C6   2C3   C2    3C2'  3C2'' i     2S3   2S6   s_h   3s_d  3s_v 
A_1g   1.00  1.00  1.00  1.00  1.00  1.00  1.00  1.00  1.00  1.00  1.00  1.00
A_2g   1.00  1.00  1.00  1.00 -1.00 -1.00  1.00  1.00  1.00  1.00 -1.00 -1.00
B_1g   1.00 -1.00  1.00 -1.00  1.00 -1.00  1.00 -1.00  1.00 -1.00  1.00 -1.00
B_2g   1.00 -1.00  1.00 -1.00 -1.00  1.00  1.00 -1.00  1.00 -1.00 -1.00  1.00
E_1g   2.00  1.00 -1.00 -2.00  0.00  0.00  2.00  1.00 -1.00 -2.00  0.00  0.00
E_2g   2.00 -1.00 -1.00  2.00  0.00  0.00  2.00 -1.00 -1.00  2.00  0.00  0.00
A_1u   1.00  1.00  1.00  1.00  1.00  1.00 -1.00 -1.00 -1.00 -1.00 -1.00 -1.00
A_2u   1.00  1.00  1.00  1.00 -1.00 -1.00 -1.00 -1.00 -1.00 -1.00  1.00  1.00
B_1u   1.00 -1.00  1.00 -1.00  1.00 -1.00 -1.00  1.00 -1.00  1.00 -1.00  1.00
B_2u   1.00 -1.00  1.00 -1.00 -1.00  1.00 -1.00  1.00 -1.00  1.00  1.00 -1.00
E_1u   2.00  1.00 -1.00 -2.00  0.00  0.00 -2.00 -1.00  1.00  2.00  0.00  0.00
E_2u   2.00 -1.00 -1.00  2.00  0.00  0.00 -2.00  1.00  1.00 -2.00  0.00  0.00

     the symmetry operations in each class and the name of the first element:

     E        1
          identity                                               
     2C6      5    6
           60 deg rotation - cryst. axis [0,0,1]                 
     2C3      7    8
          120 deg rotation - cryst. axis [0,0,1]                 
     C2       2
          180 deg rotation - cart. axis [0,0,1]                  
     3C2'     4   12   11
          180 deg rotation - cart. axis [1,0,0]                  
     3C2''    3    9   10
          180 deg rotation - cart. axis [0,1,0]                  
     i       13
          inversion                                              
     2S3     17   18
          inv.  60 deg rotation - cryst. axis [0,0,1]            
     2S6     19   20
          inv. 120 deg rotation - cryst. axis [0,0,1]            
     s_h     14
          inv. 180 deg rotation - cart. axis [0,0,1]             
     3s_d    16   24   23
          inv. 180 deg rotation - cart. axis [1,0,0]             
     3s_v    15   21   22
          inv. 180 deg rotation - cart. axis [0,1,0]             

   Cartesian axes

     site n.     atom                  positions (alat units)
         1           C   tau(   1) = (   0.0000000   0.5773503   2.0306218  )
         2           C   tau(   2) = (   0.5000000   0.2886751   2.0306218  )

   Crystallographic axes

     site n.     atom                  positions (cryst. coord.)
         1           C   tau(   1) = (  0.3333333  0.6666667  0.5000000  )
         2           C   tau(   2) = (  0.6666667  0.3333333  0.5000000  )

     number of k points=    19  Methfessel-Paxton smearing, width (Ry)=  0.0200
                       cart. coord. in units 2pi/alat
        k(    1) = (   0.0000000   0.0000000   0.0000000), wk =   0.0138889
        k(    2) = (   0.0000000   0.0962250   0.0000000), wk =   0.0833333
        k(    3) = (   0.0000000   0.1924501   0.0000000), wk =   0.0833333
        k(    4) = (   0.0000000   0.2886751   0.0000000), wk =   0.0833333
        k(    5) = (   0.0000000   0.3849002   0.0000000), wk =   0.0833333
        k(    6) = (   0.0000000   0.4811252   0.0000000), wk =   0.0833333
        k(    7) = (   0.0000000  -0.5773503   0.0000000), wk =   0.0416667
        k(    8) = (   0.0833333   0.1443376   0.0000000), wk =   0.0833333
        k(    9) = (   0.0833333   0.2405626   0.0000000), wk =   0.1666667
        k(   10) = (   0.0833333   0.3367877   0.0000000), wk =   0.1666667
        k(   11) = (   0.0833333   0.4330127   0.0000000), wk =   0.1666667
        k(   12) = (   0.0833333   0.5292377   0.0000000), wk =   0.1666667
        k(   13) = (   0.1666667   0.2886751   0.0000000), wk =   0.0833333
        k(   14) = (   0.1666667   0.3849002   0.0000000), wk =   0.1666667
        k(   15) = (   0.1666667   0.4811252   0.0000000), wk =   0.1666667
        k(   16) = (   0.1666667   0.5773503   0.0000000), wk =   0.0833333
        k(   17) = (   0.2500000   0.4330127   0.0000000), wk =   0.0833333
        k(   18) = (   0.2500000   0.5292377   0.0000000), wk =   0.1666667
        k(   19) = (   0.3333333   0.5773503   0.0000000), wk =   0.0277778

                       cryst. coord.
        k(    1) = (   0.0000000   0.0000000   0.0000000), wk =   0.0138889
        k(    2) = (   0.0000000   0.0833333   0.0000000), wk =   0.0833333
        k(    3) = (   0.0000000   0.1666667   0.0000000), wk =   0.0833333
        k(    4) = (   0.0000000   0.2500000   0.0000000), wk =   0.0833333
        k(    5) = (   0.0000000   0.3333333   0.0000000), wk =   0.0833333
        k(    6) = (   0.0000000   0.4166667   0.0000000), wk =   0.0833333
        k(    7) = (   0.0000000  -0.5000000   0.0000000), wk =   0.0416667
        k(    8) = (   0.0833333   0.0833333   0.0000000), wk =   0.0833333
        k(    9) = (   0.0833333   0.1666667   0.0000000), wk =   0.1666667
        k(   10) = (   0.0833333   0.2500000   0.0000000), wk =   0.1666667
        k(   11) = (   0.0833333   0.3333333   0.0000000), wk =   0.1666667
        k(   12) = (   0.0833333   0.4166667   0.0000000), wk =   0.1666667
        k(   13) = (   0.1666667   0.1666667   0.0000000), wk =   0.0833333
        k(   14) = (   0.1666667   0.2500000   0.0000000), wk =   0.1666667
        k(   15) = (   0.1666667   0.3333333   0.0000000), wk =   0.1666667
        k(   16) = (   0.1666667   0.4166667   0.0000000), wk =   0.0833333
        k(   17) = (   0.2500000   0.2500000   0.0000000), wk =   0.0833333
        k(   18) = (   0.2500000   0.3333333   0.0000000), wk =   0.1666667
        k(   19) = (   0.3333333   0.3333333   0.0000000), wk =   0.0277778

     Dense  grid:    18051 G-vectors     FFT dimensions: (  24,  24,  90)

     Dynamical RAM for                 wfc:       0.14 MB

     Dynamical RAM for     wfc (w. buffer):       2.74 MB

     Dynamical RAM for           str. fact:       0.14 MB

     Dynamical RAM for           local pot:       0.00 MB

     Dynamical RAM for          nlocal pot:       0.27 MB

     Dynamical RAM for                qrad:       0.49 MB

     Dynamical RAM for          rho,v,vnew:       1.01 MB

     Dynamical RAM for               rhoin:       0.34 MB

     Dynamical RAM for            rho*nmix:       2.20 MB

     Dynamical RAM for           G-vectors:       0.59 MB

     Dynamical RAM for          h,s,v(r/c):       0.05 MB

     Dynamical RAM for          <psi|beta>:       0.00 MB

     Dynamical RAM for                 psi:       0.55 MB

     Dynamical RAM for                hpsi:       0.55 MB

     Dynamical RAM for                spsi:       0.55 MB

     Dynamical RAM for      wfcinit/wfcrot:       0.28 MB

     Dynamical RAM for           addusdens:       6.20 MB

     Dynamical RAM for          addusforce:       6.54 MB

     Dynamical RAM for         addusstress:       6.88 MB

     Estimated static dynamical RAM per process >       9.04 MB

     Estimated max dynamical RAM per process >      15.92 MB

     Estimated total dynamical RAM >      31.84 MB

     Check: negative core charge=   -0.000003

     Initial potential from superposition of free atoms

     starting charge    7.99992, renormalised to    8.00000

     negative rho (up, down):  5.920E-05 0.000E+00
     Starting wfcs are    8 randomized atomic wfcs
     Checking if some PAW data can be deallocated... 

     total cpu time spent up to now is        2.2 secs

     Self-consistent Calculation

     iteration #  1     ecut=    52.00 Ry     beta= 0.70
     Davidson diagonalization with overlap
     ethr =  1.00E-02,  avg # of iterations =  5.7

     total cpu time spent up to now is        3.7 secs

          k = 0.0000 0.0000 0.0000     band energies (ev):

   -23.8835 -10.9385  -7.8875  -7.8715   2.6376   3.7754   3.7755   4.3108

     occupation numbers 
     1.0000   1.0000   1.0000   1.0000  -0.0000  -0.0000  -0.0000  -0.0000

          k = 0.0000 0.0962 0.0000     band energies (ev):

   -23.7244 -10.7472  -8.4970  -8.2134   2.8865   3.8882   4.4368   4.5303

     occupation numbers 
     1.0000   1.0000   1.0000   1.0000  -0.0000  -0.0000  -0.0000  -0.0000

          k = 0.0000 0.1925 0.0000     band energies (ev):

   -23.2498 -10.2710 -10.1279  -8.9606   3.4741   3.9877   5.3077   6.2028

     occupation numbers 
     1.0000   1.0000   1.0000   1.0000  -0.0000  -0.0000  -0.0000  -0.0000

          k = 0.0000 0.2887 0.0000     band energies (ev):

   -22.4645 -12.2483  -9.8190  -9.2630   3.3694   3.7567   4.6620   7.3799

     occupation numbers 
     1.0000   1.0000   1.0000   1.0000  -0.0000  -0.0000  -0.0000  -0.0000

          k = 0.0000 0.3849 0.0000     band energies (ev):

   -21.3820 -14.3446 -10.5250  -8.0412   1.6173   3.5308   6.1584   7.8132

     occupation numbers 
     1.0000   1.0000   1.0000   1.0000  -0.0000  -0.0000  -0.0000  -0.0000

          k = 0.0000 0.4811 0.0000     band energies (ev):

   -20.0351 -16.3537 -10.8842  -6.6978  -0.4077   3.3489   8.0841   9.6099

     occupation numbers 
     1.0000   1.0000   1.0000   1.0000  -0.0000  -0.0000  -0.0000  -0.0000

          k = 0.0000-0.5774 0.0000     band energies (ev):

   -18.8334 -17.7838 -11.0328  -5.9189  -1.3427   3.2812  10.2023  10.4114

     occupation numbers 
     1.0000   1.0000   1.0000   1.0000  -0.0000  -0.0000  -0.0000  -0.0000

          k = 0.0833 0.1443 0.0000     band energies (ev):

   -23.4059 -10.3685  -9.7136  -8.8952   3.2869   4.2278   5.3291   5.7535

     occupation numbers 
     1.0000   1.0000   1.0000   1.0000  -0.0000  -0.0000  -0.0000  -0.0000

          k = 0.0833 0.2406 0.0000     band energies (ev):

   -22.7776 -11.3197  -9.8403  -9.6240   4.1006   4.1352   4.5461   6.8536

     occupation numbers 
     1.0000   1.0000   1.0000   1.0000  -0.0000  -0.0000  -0.0000  -0.0000

          k = 0.0833 0.3368 0.0000     band energies (ev):

   -21.8436 -13.2808 -10.6998  -8.5506   2.6150   4.2929   5.5227   8.2865

     occupation numbers 
     1.0000   1.0000   1.0000   1.0000  -0.0000  -0.0000  -0.0000  -0.0000

          k = 0.0833 0.4330 0.0000     band energies (ev):

   -20.6255 -15.3041 -11.2721  -7.2297   0.4583   4.1010   7.2255   8.8787

     occupation numbers 
     1.0000   1.0000   1.0000   1.0000  -0.0000  -0.0000  -0.0000  -0.0000

          k = 0.0833 0.5292 0.0000     band energies (ev):

   -19.2044 -17.1589 -11.5099  -6.0084  -1.2624   3.9751   9.2989  11.3132

     occupation numbers 
     1.0000   1.0000   1.0000   1.0000  -0.0000  -0.0000  -0.0000  -0.0000

          k = 0.1667 0.2887 0.0000     band energies (ev):

   -21.9987 -12.5952 -11.2829  -8.7199   2.8513   5.2561   5.7549   7.0893

     occupation numbers 
     1.0000   1.0000   1.0000   1.0000  -0.0000  -0.0000  -0.0000  -0.0000

          k = 0.1667 0.3849 0.0000     band energies (ev):

   -20.9277 -14.2353 -12.2860  -7.5192   1.0526   5.9013   6.9061   8.6094

     occupation numbers 
     1.0000   1.0000   1.0000   1.0000  -0.0000  -0.0000  -0.0000  -0.0000

          k = 0.1667 0.4811 0.0000     band energies (ev):

   -19.6021 -16.0520 -12.8440  -6.1611  -0.7742   5.7747   8.6649  10.5167

     occupation numbers 
     1.0000   1.0000   1.0000   1.0000  -0.0000  -0.0000  -0.0000  -0.0000

          k = 0.1667 0.5774 0.0000     band energies (ev):

   -18.4285 -17.4085 -13.0239  -5.3341  -1.7611   5.7090  10.3283  10.8602

     occupation numbers 
     1.0000   1.0000   1.0000   1.0000  -0.0000  -0.0000  -0.0000  -0.0000

          k = 0.2500 0.4330 0.0000     band energies (ev):

   -19.7440 -15.2414 -13.6681  -6.2337  -0.5968   7.8878   8.3179   8.6220

     occupation numbers 
     1.0000   1.0000   1.0000   1.0000  -0.0000  -0.0000  -0.0000  -0.0000

          k = 0.2500 0.5292 0.0000     band energies (ev):

   -18.3808 -16.5889 -14.3455  -4.9146  -2.0975   7.9788   9.7980  10.6789

     occupation numbers 
     1.0000   1.0000   1.0000   1.0000  -0.0000  -0.0000  -0.0000  -0.0000

          k = 0.3333 0.5774 0.0000     band energies (ev):

   -17.2231 -17.2226 -15.1663  -3.5728  -3.5252   9.5869   9.5964  11.4054

     occupation numbers 
     1.0000   1.0000   1.0000   0.5737   0.4263  -0.0000  -0.0000  -0.0000

     the Fermi energy is    -3.5490 ev

!    total energy              =     -36.84751859 Ry
     Harris-Foulkes estimate   =     -36.95837822 Ry
     estimated scf accuracy    <       0.17968102 Ry

     total all-electron energy =      -152.375721 Ry

     The total energy is the sum of the following terms:

     one-electron contribution =     -91.31352609 Ry
     hartree contribution      =      47.24404413 Ry
     xc contribution           =      -8.29148839 Ry
     ewald contribution        =      27.96304911 Ry
     scf correction            =       0.89411516 Ry
     one-center paw contrib.   =     -13.34355936 Ry
      -> PAW hartree energy AE =       9.32725580 Ry
      -> PAW hartree energy PS =      -9.31216009 Ry
      -> PAW xc energy AE      =     -10.59789423 Ry
      -> PAW xc energy PS      =       3.91101885 Ry
      -> total E_H with PAW    =      47.25913983 Ry
      -> total E_XC with PAW   =     -14.97836378 Ry
     smearing contrib. (-TS)   =      -0.00015315 Ry

     iteration #  2     ecut=    52.00 Ry     beta= 0.70
     Davidson diagonalization with overlap
     ethr =  2.25E-03,  avg # of iterations =  3.0

     negative rho (up, down):  8.246E-08 0.000E+00

     total cpu time spent up to now is        4.7 secs

          k = 0.0000 0.0000 0.0000     band energies (ev):

   -19.9496  -7.9901  -3.4544  -3.4523   2.5789   4.1889   7.9977   7.9980

     occupation numbers 
     1.0000   1.0000   1.0000   1.0000  -0.0000  -0.0000  -0.0000  -0.0000

          k = 0.0000 0.0962 0.0000     band energies (ev):

   -19.7852  -7.7910  -4.1028  -3.7924   2.7452   4.4125   5.4412   8.0389

     occupation numbers 
     1.0000   1.0000   1.0000   1.0000  -0.0000  -0.0000  -0.0000  -0.0000

          k = 0.0000 0.1925 0.0000     band energies (ev):

   -19.2923  -7.1671  -5.7175  -4.5854   3.4906   7.9806   9.0540  10.5355

     occupation numbers 
     1.0000   1.0000   1.0000   1.0000  -0.0000  -0.0000  -0.0000  -0.0000

          k = 0.0000 0.2887 0.0000     band energies (ev):

   -18.4791  -7.8184  -6.2204  -5.4658   4.5662   6.8496   7.0922   7.7491

     occupation numbers 
     1.0000   1.0000   1.0000   1.0000  -0.0000  -0.0000  -0.0000  -0.0000

          k = 0.0000 0.3849 0.0000     band energies (ev):

   -17.3542 -10.0210  -6.0900  -4.9792   4.6024   6.2148   7.3847   7.8161

     occupation numbers 
     1.0000   1.0000   1.0000   1.0000  -0.0000  -0.0000  -0.0000  -0.0000

          k = 0.0000 0.4811 0.0000     band energies (ev):

   -15.9535 -12.1305  -6.6725  -3.5489   2.4371   7.1311   8.3306   9.7920

     occupation numbers 
     1.0000   1.0000   1.0000   1.0000  -0.0000  -0.0000  -0.0000  -0.0000

          k = 0.0000-0.5774 0.0000     band energies (ev):

   -14.6902 -13.6562  -6.8357  -2.6785   1.3129   7.0428  10.8351  10.8828

     occupation numbers 
     1.0000   1.0000   1.0000   1.0000  -0.0000  -0.0000  -0.0000  -0.0000

          k = 0.0833 0.1443 0.0000     band energies (ev):

   -19.4564  -7.3515  -5.1145  -4.3601   3.2708   8.3204   9.5434   9.5836

     occupation numbers 
     1.0000   1.0000   1.0000   1.0000  -0.0000  -0.0000  -0.0000  -0.0000

          k = 0.0833 0.2406 0.0000     band energies (ev):

   -18.8028  -6.8223  -6.5830  -5.3740   4.1877   7.8067   8.4731  11.0093

     occupation numbers 
     1.0000   1.0000   1.0000   1.0000  -0.0000  -0.0000  -0.0000  -0.0000

          k = 0.0833 0.3368 0.0000     band energies (ev):

   -17.8344  -8.8960  -6.2712  -5.4798   5.4737   5.6419   8.0010   8.2993

     occupation numbers 
     1.0000   1.0000   1.0000   1.0000  -0.0000  -0.0000  -0.0000  -0.0000

          k = 0.0833 0.4330 0.0000     band energies (ev):

   -16.5711 -11.0288  -6.9896  -4.1257   3.3711   7.3315   7.9661   8.9228

     occupation numbers 
     1.0000   1.0000   1.0000   1.0000  -0.0000  -0.0000  -0.0000  -0.0000

          k = 0.0833 0.5292 0.0000     band energies (ev):

   -15.0889 -12.9886  -7.3173  -2.7789   1.6348   7.7858   9.6535  12.7710

     occupation numbers 
     1.0000   1.0000   1.0000   1.0000  -0.0000  -0.0000  -0.0000  -0.0000

          k = 0.1667 0.2887 0.0000     band energies (ev):

   -17.9956  -8.1539  -6.8149  -5.6520   5.5265   6.0430   9.6437  11.2570

     occupation numbers 
     1.0000   1.0000   1.0000   1.0000  -0.0000  -0.0000  -0.0000  -0.0000

          k = 0.1667 0.3849 0.0000     band energies (ev):

   -16.8841  -9.8882  -7.8729  -4.3903   4.0864   7.1561   9.8989  12.7035

     occupation numbers 
     1.0000   1.0000   1.0000   1.0000  -0.0000  -0.0000  -0.0000  -0.0000

          k = 0.1667 0.4811 0.0000     band energies (ev):

   -15.5038 -11.8103  -8.4509  -2.9682   2.1683   8.9518   9.7017  14.0775

     occupation numbers 
     1.0000   1.0000   1.0000   1.0000  -0.0000  -0.0000  -0.0000  -0.0000

          k = 0.1667 0.5774 0.0000     band energies (ev):

   -14.2676 -13.2590  -8.6372  -2.0740   1.0888   9.6002  11.4435  12.1207

     occupation numbers 
     1.0000   1.0000   1.0000   1.0000  -0.0000  -0.0000  -0.0000  -0.0000

          k = 0.2500 0.4330 0.0000     band energies (ev):

   -15.6526 -10.9271  -9.3638  -3.0460   2.4789   8.7155  11.8960  12.4029

     occupation numbers 
     1.0000   1.0000   1.0000   1.0000  -0.0000  -0.0000  -0.0000  -0.0000

          k = 0.2500 0.5292 0.0000     band energies (ev):

   -14.2310 -12.3665 -10.0795  -1.6560   0.9550  10.7417  11.8905  12.8347

     occupation numbers 
     1.0000   1.0000   1.0000   1.0000  -0.0000  -0.0000  -0.0000  -0.0000

          k = 0.3333 0.5774 0.0000     band energies (ev):

   -13.0100 -13.0100 -10.9883  -0.3638  -0.3603  10.1897  12.4570  12.4723

     occupation numbers 
     1.0000   1.0000   1.0000   0.5055   0.4945  -0.0000  -0.0000  -0.0000

     the Fermi energy is    -0.3621 ev

!    total energy              =     -36.86931399 Ry
     Harris-Foulkes estimate   =     -36.87235659 Ry
     estimated scf accuracy    <       0.00590825 Ry

     total all-electron energy =      -152.397517 Ry

     The total energy is the sum of the following terms:

     one-electron contribution =     -90.93551140 Ry
     hartree contribution      =      47.69555418 Ry
     xc contribution           =      -8.35782937 Ry
     ewald contribution        =      27.96304911 Ry
     scf correction            =       0.07900850 Ry
     one-center paw contrib.   =     -13.31342831 Ry
      -> PAW hartree energy AE =      11.39671385 Ry
      -> PAW hartree energy PS =     -11.38142124 Ry
      -> PAW xc energy AE      =     -11.05005427 Ry
      -> PAW xc energy PS      =       4.37804750 Ry
      -> total E_H with PAW    =      47.71084679 Ry
      -> total E_XC with PAW   =     -15.02983614 Ry
     smearing contrib. (-TS)   =      -0.00015670 Ry

     iteration #  3     ecut=    52.00 Ry     beta= 0.70
     Davidson diagonalization with overlap
     ethr =  7.39E-05,  avg # of iterations =  7.2

     negative rho (up, down):  1.439E-07 0.000E+00

     total cpu time spent up to now is        6.5 secs

          k = 0.0000 0.0000 0.0000     band energies (ev):

   -19.2219  -7.4984  -2.5826  -2.5825   2.4852   4.1288   5.1657   8.7365

     occupation numbers 
     1.0000   1.0000   1.0000   1.0000  -0.0000  -0.0000  -0.0000  -0.0000

          k = 0.0000 0.0962 0.0000     band energies (ev):

   -19.0566  -7.3003  -3.2428  -2.9254   2.7109   4.3542   5.3892   8.7953

     occupation numbers 
     1.0000   1.0000   1.0000   1.0000  -0.0000  -0.0000  -0.0000  -0.0000

          k = 0.0000 0.1925 0.0000     band energies (ev):

   -18.5626  -6.7126  -4.9038  -3.7286   3.3879   5.0247   6.0524   8.7213

     occupation numbers 
     1.0000   1.0000   1.0000   1.0000  -0.0000  -0.0000  -0.0000  -0.0000

          k = 0.0000 0.2887 0.0000     band energies (ev):

   -17.7456  -7.0273  -5.7530  -4.6174   4.5152   6.1050   7.1540   7.5693

     occupation numbers 
     1.0000   1.0000   1.0000   1.0000  -0.0000  -0.0000  -0.0000  -0.0000

          k = 0.0000 0.3849 0.0000     band energies (ev):

   -16.6175  -9.2543  -5.3574  -4.4710   5.1427   6.0891   7.7149   8.0375

     occupation numbers 
     1.0000   1.0000   1.0000   1.0000  -0.0000  -0.0000  -0.0000  -0.0000

          k = 0.0000 0.4811 0.0000     band energies (ev):

   -15.2090 -11.3760  -5.8340  -3.0278   2.9744   7.7912   8.1279   9.6664

     occupation numbers 
     1.0000   1.0000   1.0000   1.0000  -0.0000  -0.0000  -0.0000  -0.0000

          k = 0.0000-0.5774 0.0000     band energies (ev):

   -13.9289 -12.9018  -5.9972  -2.1645   1.8570   7.7208  10.5027  10.5999

     occupation numbers 
     1.0000   1.0000   1.0000   1.0000  -0.0000  -0.0000  -0.0000  -0.0000

          k = 0.0833 0.1443 0.0000     band energies (ev):

   -18.7270  -6.9076  -4.2903  -3.6146   3.1624   4.8064   5.8324   9.0814

     occupation numbers 
     1.0000   1.0000   1.0000   1.0000  -0.0000  -0.0000  -0.0000  -0.0000

          k = 0.0833 0.2406 0.0000     band energies (ev):

   -18.0715  -6.1327  -6.0211  -4.6261   4.0648   5.6899   6.7189   8.4043

     occupation numbers 
     1.0000   1.0000   1.0000   1.0000  -0.0000  -0.0000  -0.0000  -0.0000

          k = 0.0833 0.3368 0.0000     band energies (ev):

   -17.0988  -8.1182  -5.5210  -5.0055   5.4160   6.1665   7.0604   8.0404

     occupation numbers 
     1.0000   1.0000   1.0000   1.0000  -0.0000  -0.0000  -0.0000  -0.0000

          k = 0.0833 0.4330 0.0000     band energies (ev):

   -15.8275 -10.2637  -6.1608  -3.6091   3.9466   7.2100   8.6389   8.7690

     occupation numbers 
     1.0000   1.0000   1.0000   1.0000  -0.0000  -0.0000  -0.0000  -0.0000

          k = 0.0833 0.5292 0.0000     band energies (ev):

   -14.3330 -12.2263  -6.4918  -2.2767   2.1431   8.4683   9.4458  10.8815

     occupation numbers 
     1.0000   1.0000   1.0000   1.0000  -0.0000  -0.0000  -0.0000  -0.0000

          k = 0.1667 0.2887 0.0000     band energies (ev):

   -17.2603  -7.3623  -6.0105  -5.1864   5.1916   6.6622   6.7773   7.8274

     occupation numbers 
     1.0000   1.0000   1.0000   1.0000  -0.0000  -0.0000  -0.0000  -0.0000

          k = 0.1667 0.3849 0.0000     band energies (ev):

   -16.1429  -9.1092  -7.0784  -3.9196   4.6855   6.7638   8.2770   9.3656

     occupation numbers 
     1.0000   1.0000   1.0000   1.0000  -0.0000  -0.0000  -0.0000  -0.0000

          k = 0.1667 0.4811 0.0000     band energies (ev):

   -14.7543 -11.0420  -7.6582  -2.4730   2.7413   8.7703  10.3790  11.3440

     occupation numbers 
     1.0000   1.0000   1.0000   1.0000  -0.0000  -0.0000  -0.0000  -0.0000

          k = 0.1667 0.5774 0.0000     band energies (ev):

   -13.5037 -12.4965  -7.8441  -1.5622   1.6514  10.2910  11.1265  11.2439

     occupation numbers 
     1.0000   1.0000   1.0000   1.0000  -0.0000  -0.0000  -0.0000  -0.0000

          k = 0.2500 0.4330 0.0000     band energies (ev):

   -14.9035 -10.1506  -8.5848  -2.5605   3.0594   8.5474   9.7741  11.1063

     occupation numbers 
     1.0000   1.0000   1.0000   1.0000  -0.0000  -0.0000  -0.0000  -0.0000

          k = 0.2500 0.5292 0.0000     band energies (ev):

   -13.4661 -11.5898  -9.2989  -1.1545   1.5193  10.7074  10.7293  12.5034

     occupation numbers 
     1.0000   1.0000   1.0000   1.0000  -0.0000  -0.0000  -0.0000  -0.0000

          k = 0.3333 0.5774 0.0000     band energies (ev):

   -12.2342 -12.2341 -10.2129   0.2156   0.2156  10.4691  12.7020  12.7022

     occupation numbers 
     1.0000   1.0000   1.0000   0.5000   0.5000  -0.0000  -0.0000  -0.0000

     the Fermi energy is     0.2156 ev

!    total energy              =     -36.88979222 Ry
     Harris-Foulkes estimate   =     -36.89118514 Ry
     estimated scf accuracy    <       0.00622186 Ry

     total all-electron energy =      -152.417995 Ry

     The total energy is the sum of the following terms:

     one-electron contribution =     -90.25072627 Ry
     hartree contribution      =      47.56333765 Ry
     xc contribution           =      -8.33977017 Ry
     ewald contribution        =      27.96304911 Ry
     scf correction            =      -0.51237046 Ry
     one-center paw contrib.   =     -13.31315536 Ry
      -> PAW hartree energy AE =      11.26937721 Ry
      -> PAW hartree energy PS =     -11.25418554 Ry
      -> PAW xc energy AE      =     -11.02197348 Ry
      -> PAW xc energy PS      =       4.35020412 Ry
      -> total E_H with PAW    =      47.57852933 Ry
      -> total E_XC with PAW   =     -15.01153953 Ry
     smearing contrib. (-TS)   =      -0.00015672 Ry

     iteration #  4     ecut=    52.00 Ry     beta= 0.70
     Davidson diagonalization with overlap
     ethr =  7.39E-05,  avg # of iterations =  1.0

     negative rho (up, down):  4.411E-05 0.000E+00

     total cpu time spent up to now is        7.4 secs

          k = 0.0000 0.0000 0.0000     band energies (ev):

   -19.4360  -7.6578  -2.8345  -2.8345   2.5072   4.1446   5.1858   8.5068

     occupation numbers 
     1.0000   1.0000   1.0000   1.0000  -0.0000  -0.0000  -0.0000  -0.0000

          k = 0.0000 0.0962 0.0000     band energies (ev):

   -19.2710  -7.4602  -3.4923  -3.1765   2.7326   4.3686   5.4077   8.5681

     occupation numbers 
     1.0000   1.0000   1.0000   1.0000  -0.0000  -0.0000  -0.0000  -0.0000

          k = 0.0000 0.1925 0.0000     band energies (ev):

   -18.7778  -6.8733  -5.1471  -3.9770   3.4089   5.0367   6.0710   8.5024

     occupation numbers 
     1.0000   1.0000   1.0000   1.0000  -0.0000  -0.0000  -0.0000  -0.0000

          k = 0.0000 0.2887 0.0000     band energies (ev):

   -17.9620  -7.2646  -5.9154  -4.8638   4.5348   6.1141   7.1699   7.3833

     occupation numbers 
     1.0000   1.0000   1.0000   1.0000  -0.0000  -0.0000  -0.0000  -0.0000

          k = 0.0000 0.3849 0.0000     band energies (ev):

   -16.8358  -9.4861  -5.6024  -4.6363   4.9653   6.1063   7.7243   7.8385

     occupation numbers 
     1.0000   1.0000   1.0000   1.0000  -0.0000  -0.0000  -0.0000  -0.0000

          k = 0.0000 0.4811 0.0000     band energies (ev):

   -15.4298 -11.6032  -6.0784  -3.1976   2.8034   7.5912   8.1373   9.6732

     occupation numbers 
     1.0000   1.0000   1.0000   1.0000  -0.0000  -0.0000  -0.0000  -0.0000

          k = 0.0000-0.5774 0.0000     band energies (ev):

   -14.1526 -13.1254  -6.2415  -2.3385   1.6888   7.5156  10.5089  10.6121

     occupation numbers 
     1.0000   1.0000   1.0000   1.0000  -0.0000  -0.0000  -0.0000  -0.0000

          k = 0.0833 0.1443 0.0000     band energies (ev):

   -18.9419  -7.0680  -4.5359  -3.8627   3.1836   4.8181   5.8505   8.8579

     occupation numbers 
     1.0000   1.0000   1.0000   1.0000  -0.0000  -0.0000  -0.0000  -0.0000

          k = 0.0833 0.2406 0.0000     band energies (ev):

   -18.2874  -6.2944  -6.2615  -4.8711   4.0851   5.6986   6.7371   8.2094

     occupation numbers 
     1.0000   1.0000   1.0000   1.0000  -0.0000  -0.0000  -0.0000  -0.0000

          k = 0.0833 0.3368 0.0000     band energies (ev):

   -17.3163  -8.3530  -5.7641  -5.1695   5.4346   5.9902   7.0616   8.0507

     occupation numbers 
     1.0000   1.0000   1.0000   1.0000  -0.0000  -0.0000  -0.0000  -0.0000

          k = 0.0833 0.4330 0.0000     band energies (ev):

   -16.0471 -10.4935  -6.4029  -3.7767   3.7698   7.2253   8.4334   8.7777

     occupation numbers 
     1.0000   1.0000   1.0000   1.0000  -0.0000  -0.0000  -0.0000  -0.0000

          k = 0.0833 0.5292 0.0000     band energies (ev):

   -14.5555 -12.4518  -6.7334  -2.4495   1.9742   8.2611   9.4577  10.8787

     occupation numbers 
     1.0000   1.0000   1.0000   1.0000  -0.0000  -0.0000  -0.0000  -0.0000

          k = 0.1667 0.2887 0.0000     band energies (ev):

   -17.4775  -7.5999  -6.2504  -5.3499   5.2106   6.4720   6.7891   7.8456

     occupation numbers 
     1.0000   1.0000   1.0000   1.0000  -0.0000  -0.0000  -0.0000  -0.0000

          k = 0.1667 0.3849 0.0000     band energies (ev):

   -16.3621  -9.3424  -7.3156  -4.0860   4.5014   6.7805   8.2847   9.3813

     occupation numbers 
     1.0000   1.0000   1.0000   1.0000  -0.0000  -0.0000  -0.0000  -0.0000

          k = 0.1667 0.4811 0.0000     band energies (ev):

   -14.9759 -11.2705  -7.8945  -2.6436   2.5642   8.7822  10.1712  11.3555

     occupation numbers 
     1.0000   1.0000   1.0000   1.0000  -0.0000  -0.0000  -0.0000  -0.0000

          k = 0.1667 0.5774 0.0000     band energies (ev):

   -13.7283 -12.7213  -8.0802  -1.7369   1.4789  10.0810  11.1196  11.2500

     occupation numbers 
     1.0000   1.0000   1.0000   1.0000  -0.0000  -0.0000  -0.0000  -0.0000

          k = 0.2500 0.4330 0.0000     band energies (ev):

   -15.1248 -10.3822  -8.8170  -2.7304   2.8771   8.5604   9.7665  11.1214

     occupation numbers 
     1.0000   1.0000   1.0000   1.0000  -0.0000  -0.0000  -0.0000  -0.0000

          k = 0.2500 0.5292 0.0000     band energies (ev):

   -13.6904 -11.8178  -9.5297  -1.3288   1.3415  10.6414  10.7328  12.3104

     occupation numbers 
     1.0000   1.0000   1.0000   1.0000  -0.0000  -0.0000  -0.0000  -0.0000

          k = 0.3333 0.5774 0.0000     band energies (ev):

   -12.4615 -12.4615 -10.4403   0.0385   0.0385  10.3885  12.6421  12.6424

     occupation numbers 
     1.0000   1.0000   1.0000   0.5000   0.5000  -0.0000  -0.0000  -0.0000

     the Fermi energy is     0.0385 ev

!    total energy              =     -36.88746757 Ry
     Harris-Foulkes estimate   =     -36.88983830 Ry
     estimated scf accuracy    <       0.00372626 Ry

     total all-electron energy =      -152.415670 Ry

     The total energy is the sum of the following terms:

     one-electron contribution =     -90.28373686 Ry
     hartree contribution      =      47.11638215 Ry
     xc contribution           =      -8.28049907 Ry
     ewald contribution        =      27.96304911 Ry
     scf correction            =      -0.09497593 Ry
     one-center paw contrib.   =     -13.30753025 Ry
      -> PAW hartree energy AE =      11.01900128 Ry
      -> PAW hartree energy PS =     -11.00423766 Ry
      -> PAW xc energy AE      =     -10.96464104 Ry
      -> PAW xc energy PS      =       4.29611230 Ry
      -> total E_H with PAW    =      47.13114577 Ry
      -> total E_XC with PAW   =     -14.94902781 Ry
     smearing contrib. (-TS)   =      -0.00015672 Ry

     iteration #  5     ecut=    52.00 Ry     beta= 0.70
     Davidson diagonalization with overlap
     ethr =  4.66E-05,  avg # of iterations =  4.1

     negative rho (up, down):  3.238E-05 0.000E+00

     total cpu time spent up to now is        8.6 secs

          k = 0.0000 0.0000 0.0000     band energies (ev):

   -20.1637  -8.2028  -3.6901  -3.6901   2.6120   4.2624   5.2503   7.7217

     occupation numbers 
     1.0000   1.0000   1.0000   1.0000  -0.0000  -0.0000  -0.0000  -0.0000

          k = 0.0000 0.0962 0.0000     band energies (ev):

   -19.9996  -8.0064  -4.3395  -4.0291   2.8365   4.4862   5.4713   7.7922

     occupation numbers 
     1.0000   1.0000   1.0000   1.0000  -0.0000  -0.0000  -0.0000  -0.0000

          k = 0.0000 0.1925 0.0000     band energies (ev):

   -19.5089  -7.4205  -5.9736  -4.8212   3.5097   5.1534   6.1316   7.7593

     occupation numbers 
     1.0000   1.0000   1.0000   1.0000  -0.0000  -0.0000  -0.0000  -0.0000

          k = 0.0000 0.2887 0.0000     band energies (ev):

   -18.6978  -8.0714  -6.4709  -5.7024   4.6296   6.1832   6.7782   7.1719

     occupation numbers 
     1.0000   1.0000   1.0000   1.0000  -0.0000  -0.0000  -0.0000  -0.0000

          k = 0.0000 0.3849 0.0000     band energies (ev):

   -17.5779 -10.2747  -6.4358  -5.2014   4.3578   6.1863   7.1479   7.8179

     occupation numbers 
     1.0000   1.0000   1.0000   1.0000  -0.0000  -0.0000  -0.0000  -0.0000

          k = 0.0000 0.4811 0.0000     band energies (ev):

   -16.1804 -12.3764  -6.9094  -3.7779   2.2199   6.8973   8.2096   9.7548

     occupation numbers 
     1.0000   1.0000   1.0000   1.0000  -0.0000  -0.0000  -0.0000  -0.0000

          k = 0.0000-0.5774 0.0000     band energies (ev):

   -14.9131 -13.8861  -7.0724  -2.9335   1.1227   6.8193  10.5428  10.6778

     occupation numbers 
     1.0000   1.0000   1.0000   1.0000  -0.0000  -0.0000  -0.0000  -0.0000

          k = 0.0833 0.1443 0.0000     band energies (ev):

   -19.6723  -7.6141  -5.3704  -4.7060   3.2854   4.9342   5.9131   8.0958

     occupation numbers 
     1.0000   1.0000   1.0000   1.0000  -0.0000  -0.0000  -0.0000  -0.0000

          k = 0.0833 0.2406 0.0000     band energies (ev):

   -19.0214  -7.0784  -6.8451  -5.7044   4.1829   5.8091   6.7990   7.5495

     occupation numbers 
     1.0000   1.0000   1.0000   1.0000  -0.0000  -0.0000  -0.0000  -0.0000

          k = 0.0833 0.3368 0.0000     band energies (ev):

   -18.0556  -9.1514  -6.5912  -5.7302   5.3736   5.5248   7.1458   7.9080

     occupation numbers 
     1.0000   1.0000   1.0000   1.0000  -0.0000  -0.0000  -0.0000  -0.0000

          k = 0.0833 0.4330 0.0000     band energies (ev):

   -16.7939 -11.2752  -7.2269  -4.3494   3.1667   7.2880   7.7482   8.8634

     occupation numbers 
     1.0000   1.0000   1.0000   1.0000  -0.0000  -0.0000  -0.0000  -0.0000

          k = 0.0833 0.5292 0.0000     band energies (ev):

   -15.3121 -13.2189  -7.5550  -3.0399   1.3968   7.5569   9.5197  10.9113

     occupation numbers 
     1.0000   1.0000   1.0000   1.0000  -0.0000  -0.0000  -0.0000  -0.0000

          k = 0.1667 0.2887 0.0000     band energies (ev):

   -18.2160  -8.4077  -7.0659  -5.9091   5.3031   5.8264   6.8928   7.9055

     occupation numbers 
     1.0000   1.0000   1.0000   1.0000  -0.0000  -0.0000  -0.0000  -0.0000

          k = 0.1667 0.3849 0.0000     band energies (ev):

   -17.1070 -10.1352  -8.1224  -4.6532   3.8762   6.8633   8.3767   9.4307

     occupation numbers 
     1.0000   1.0000   1.0000   1.0000  -0.0000  -0.0000  -0.0000  -0.0000

          k = 0.1667 0.4811 0.0000     band energies (ev):

   -15.7295 -12.0474  -8.6989  -3.2271   1.9610   8.8395   9.4689  10.1017

     occupation numbers 
     1.0000   1.0000   1.0000   1.0000  -0.0000  -0.0000  -0.0000  -0.0000

          k = 0.1667 0.5774 0.0000     band energies (ev):

   -14.4918 -13.4858  -8.8836  -2.3344   0.8920   9.3667  11.1315  11.2960

     occupation numbers 
     1.0000   1.0000   1.0000   1.0000  -0.0000  -0.0000  -0.0000  -0.0000

          k = 0.2500 0.4330 0.0000     band energies (ev):

   -15.8775 -11.1698  -9.6074  -3.3103   2.2563   8.6273   9.7722  11.1376

     occupation numbers 
     1.0000   1.0000   1.0000   1.0000  -0.0000  -0.0000  -0.0000  -0.0000

          k = 0.2500 0.5292 0.0000     band energies (ev):

   -14.4532 -12.5927 -10.3153  -1.9225   0.7364  10.4217  10.7489  11.6415

     occupation numbers 
     1.0000   1.0000   1.0000   1.0000  -0.0000  -0.0000  -0.0000  -0.0000

          k = 0.3333 0.5774 0.0000     band energies (ev):

   -13.2342 -13.2342 -11.2130  -0.5667  -0.5667  10.1249  12.3622  12.3623

     occupation numbers 
     1.0000   1.0000   1.0000   0.5000   0.5000  -0.0000  -0.0000  -0.0000

     the Fermi energy is    -0.5667 ev

!    total energy              =     -36.88834627 Ry
     Harris-Foulkes estimate   =     -36.88844304 Ry
     estimated scf accuracy    <       0.00017439 Ry

     total all-electron energy =      -152.416549 Ry

     The total energy is the sum of the following terms:

     one-electron contribution =     -90.47728322 Ry
     hartree contribution      =      47.17841519 Ry
     xc contribution           =      -8.28928768 Ry
     ewald contribution        =      27.96304911 Ry
     scf correction            =       0.04442413 Ry
     one-center paw contrib.   =     -13.30750708 Ry
      -> PAW hartree energy AE =      11.10462785 Ry
      -> PAW hartree energy PS =     -11.08980312 Ry
      -> PAW xc energy AE      =     -10.98361850 Ry
      -> PAW xc energy PS      =       4.31504023 Ry
      -> total E_H with PAW    =      47.19323992 Ry
      -> total E_XC with PAW   =     -14.95786596 Ry
     smearing contrib. (-TS)   =      -0.00015672 Ry

     iteration #  6     ecut=    52.00 Ry     beta= 0.70
     Davidson diagonalization with overlap
     ethr =  2.18E-06,  avg # of iterations =  4.4

     negative rho (up, down):  2.964E-05 0.000E+00

     total cpu time spent up to now is        9.9 secs

          k = 0.0000 0.0000 0.0000     band energies (ev):

   -20.0622  -8.1293  -3.5698  -3.5698   2.5967   4.2430   5.2433   7.8298

     occupation numbers 
     1.0000   1.0000   1.0000   1.0000  -0.0000  -0.0000  -0.0000  -0.0000

          k = 0.0000 0.0962 0.0000     band energies (ev):

   -19.8980  -7.9329  -4.2202  -3.9088   2.8212   4.4651   5.4639   7.9001

     occupation numbers 
     1.0000   1.0000   1.0000   1.0000  -0.0000  -0.0000  -0.0000  -0.0000

          k = 0.0000 0.1925 0.0000     band energies (ev):

   -19.4070  -7.3487  -5.8581  -4.7028   3.4948   5.1286   6.1249   7.8612

     occupation numbers 
     1.0000   1.0000   1.0000   1.0000  -0.0000  -0.0000  -0.0000  -0.0000

          k = 0.0000 0.2887 0.0000     band energies (ev):

   -18.5951  -7.9581  -6.3960  -5.5843   4.6157   6.1754   6.8536   7.1841

     occupation numbers 
     1.0000   1.0000   1.0000   1.0000  -0.0000  -0.0000  -0.0000  -0.0000

          k = 0.0000 0.3849 0.0000     band energies (ev):

   -17.4743 -10.1642  -6.3192  -5.1252   4.4401   6.1751   7.2433   7.8017

     occupation numbers 
     1.0000   1.0000   1.0000   1.0000  -0.0000  -0.0000  -0.0000  -0.0000

          k = 0.0000 0.4811 0.0000     band energies (ev):

   -16.0755 -12.2680  -6.7931  -3.6996   2.2987   6.9941   8.1978   9.7403

     occupation numbers 
     1.0000   1.0000   1.0000   1.0000  -0.0000  -0.0000  -0.0000  -0.0000

          k = 0.0000-0.5774 0.0000     band energies (ev):

   -14.8069 -13.7797  -6.9558  -2.8533   1.1979   6.9160  10.5368  10.6686

     occupation numbers 
     1.0000   1.0000   1.0000   1.0000  -0.0000  -0.0000  -0.0000  -0.0000

          k = 0.0833 0.1443 0.0000     band energies (ev):

   -19.5704  -7.5424  -5.2536  -4.5876   3.2705   4.9083   5.9059   8.2016

     occupation numbers 
     1.0000   1.0000   1.0000   1.0000  -0.0000  -0.0000  -0.0000  -0.0000

          k = 0.0833 0.2406 0.0000     band energies (ev):

   -18.9190  -6.9642  -6.7728  -5.5874   4.1684   5.7869   6.7885   7.6373

     occupation numbers 
     1.0000   1.0000   1.0000   1.0000  -0.0000  -0.0000  -0.0000  -0.0000

          k = 0.0833 0.3368 0.0000     band energies (ev):

   -17.9524  -9.0395  -6.4751  -5.6546   5.4577   5.5115   7.1297   7.9679

     occupation numbers 
     1.0000   1.0000   1.0000   1.0000  -0.0000  -0.0000  -0.0000  -0.0000

          k = 0.0833 0.4330 0.0000     band energies (ev):

   -16.6896 -11.1656  -7.1110  -4.2722   3.2483   7.2809   7.8393   8.8486

     occupation numbers 
     1.0000   1.0000   1.0000   1.0000  -0.0000  -0.0000  -0.0000  -0.0000

          k = 0.0833 0.5292 0.0000     band energies (ev):

   -15.2064 -13.1114  -7.4400  -2.9602   1.4748   7.6548   9.5104  10.9039

     occupation numbers 
     1.0000   1.0000   1.0000   1.0000  -0.0000  -0.0000  -0.0000  -0.0000

          k = 0.1667 0.2887 0.0000     band energies (ev):

   -18.1129  -8.2947  -6.9521  -5.8338   5.2893   5.9125   6.8746   7.8966

     occupation numbers 
     1.0000   1.0000   1.0000   1.0000  -0.0000  -0.0000  -0.0000  -0.0000

          k = 0.1667 0.3849 0.0000     band energies (ev):

   -17.0030 -10.0244  -8.0098  -4.5782   3.9590   6.8509   8.3548   9.3977

     occupation numbers 
     1.0000   1.0000   1.0000   1.0000  -0.0000  -0.0000  -0.0000  -0.0000

          k = 0.1667 0.4811 0.0000     band energies (ev):

   -15.6242 -11.9389  -8.5861  -3.1484   2.0417   8.8318   9.5654  10.0972

     occupation numbers 
     1.0000   1.0000   1.0000   1.0000  -0.0000  -0.0000  -0.0000  -0.0000

          k = 0.1667 0.5774 0.0000     band energies (ev):

   -14.3851 -13.3788  -8.7711  -2.2537   0.9709   9.4658  11.1171  11.2897

     occupation numbers 
     1.0000   1.0000   1.0000   1.0000  -0.0000  -0.0000  -0.0000  -0.0000

          k = 0.2500 0.4330 0.0000     band energies (ev):

   -15.7723 -11.0594  -9.4968  -3.2327   2.3403   8.6173   9.7704  11.1439

     occupation numbers 
     1.0000   1.0000   1.0000   1.0000  -0.0000  -0.0000  -0.0000  -0.0000

          k = 0.2500 0.5292 0.0000     band energies (ev):

   -14.3466 -12.4843 -10.2052  -1.8439   0.8162  10.4515  10.7471  11.7343

     occupation numbers 
     1.0000   1.0000   1.0000   1.0000  -0.0000  -0.0000  -0.0000  -0.0000

          k = 0.3333 0.5774 0.0000     band energies (ev):

   -13.1261 -13.1261 -11.1057  -0.4849  -0.4849  10.1610  12.4048  12.4048

     occupation numbers 
     1.0000   1.0000   1.0000   0.5000   0.5000  -0.0000  -0.0000  -0.0000

     the Fermi energy is    -0.4849 ev

!    total energy              =     -36.88851874 Ry
     Harris-Foulkes estimate   =     -36.88854300 Ry
     estimated scf accuracy    <       0.00006671 Ry

     total all-electron energy =      -152.416722 Ry

     The total energy is the sum of the following terms:

     one-electron contribution =     -90.48926142 Ry
     hartree contribution      =      47.19922167 Ry
     xc contribution           =      -8.29238502 Ry
     ewald contribution        =      27.96304911 Ry
     scf correction            =       0.03845967 Ry
     one-center paw contrib.   =     -13.30744603 Ry
      -> PAW hartree energy AE =      11.13629852 Ry
      -> PAW hartree energy PS =     -11.12145324 Ry
      -> PAW xc energy AE      =     -10.99059686 Ry
      -> PAW xc energy PS      =       4.32202857 Ry
      -> total E_H with PAW    =      47.21406695 Ry
      -> total E_XC with PAW   =     -14.96095332 Ry
     smearing contrib. (-TS)   =      -0.00015672 Ry

     iteration #  7     ecut=    52.00 Ry     beta= 0.70
     Davidson diagonalization with overlap
     ethr =  8.34E-07,  avg # of iterations =  2.3

     negative rho (up, down):  2.664E-05 0.000E+00

     total cpu time spent up to now is       10.8 secs

          k = 0.0000 0.0000 0.0000     band energies (ev):

   -20.0285  -8.1054  -3.5289  -3.5289   2.5903   4.2346   5.2412   7.8665

     occupation numbers 
     1.0000   1.0000   1.0000   1.0000  -0.0000  -0.0000  -0.0000  -0.0000

          k = 0.0000 0.0962 0.0000     band energies (ev):

   -19.8642  -7.9088  -4.1798  -3.8682   2.8149   4.4568   5.4618   7.9362

     occupation numbers 
     1.0000   1.0000   1.0000   1.0000  -0.0000  -0.0000  -0.0000  -0.0000

          k = 0.0000 0.1925 0.0000     band energies (ev):

   -19.3731  -7.3245  -5.8188  -4.6626   3.4886   5.1205   6.1230   7.8957

     occupation numbers 
     1.0000   1.0000   1.0000   1.0000  -0.0000  -0.0000  -0.0000  -0.0000

          k = 0.0000 0.2887 0.0000     band energies (ev):

   -18.5609  -7.9200  -6.3715  -5.5445   4.6098   6.1706   6.8798   7.1872

     occupation numbers 
     1.0000   1.0000   1.0000   1.0000  -0.0000  -0.0000  -0.0000  -0.0000

          k = 0.0000 0.3849 0.0000     band energies (ev):

   -17.4397 -10.1271  -6.2796  -5.1002   4.4674   6.1700   7.2751   7.7945

     occupation numbers 
     1.0000   1.0000   1.0000   1.0000  -0.0000  -0.0000  -0.0000  -0.0000

          k = 0.0000 0.4811 0.0000     band energies (ev):

   -16.0405 -12.2317  -6.7536  -3.6739   2.3247   7.0261   8.1928   9.7339

     occupation numbers 
     1.0000   1.0000   1.0000   1.0000  -0.0000  -0.0000  -0.0000  -0.0000

          k = 0.0000-0.5774 0.0000     band energies (ev):

   -14.7713 -13.7441  -6.9163  -2.8269   1.2230   6.9480  10.5334  10.6642

     occupation numbers 
     1.0000   1.0000   1.0000   1.0000  -0.0000  -0.0000  -0.0000  -0.0000

          k = 0.0833 0.1443 0.0000     band energies (ev):

   -19.5365  -7.5182  -5.2139  -4.5474   3.2642   4.9001   5.9039   8.2371

     occupation numbers 
     1.0000   1.0000   1.0000   1.0000  -0.0000  -0.0000  -0.0000  -0.0000

          k = 0.0833 0.2406 0.0000     band energies (ev):

   -18.8849  -6.9255  -6.7484  -5.5478   4.1624   5.7789   6.7868   7.6673

     occupation numbers 
     1.0000   1.0000   1.0000   1.0000  -0.0000  -0.0000  -0.0000  -0.0000

          k = 0.0833 0.3368 0.0000     band energies (ev):

   -17.9180  -9.0019  -6.4359  -5.6298   5.4857   5.5058   7.1227   7.9850

     occupation numbers 
     1.0000   1.0000   1.0000   1.0000  -0.0000  -0.0000  -0.0000  -0.0000

          k = 0.0833 0.4330 0.0000     band energies (ev):

   -16.6548 -11.1289  -7.0720  -4.2468   3.2752   7.2771   7.8703   8.8419

     occupation numbers 
     1.0000   1.0000   1.0000   1.0000  -0.0000  -0.0000  -0.0000  -0.0000

          k = 0.0833 0.5292 0.0000     band energies (ev):

   -15.1710 -13.0754  -7.4011  -2.9340   1.5005   7.6873   9.5060  10.8998

     occupation numbers 
     1.0000   1.0000   1.0000   1.0000  -0.0000  -0.0000  -0.0000  -0.0000

          k = 0.1667 0.2887 0.0000     band energies (ev):

   -18.0786  -8.2565  -6.9135  -5.8091   5.2835   5.9417   6.8670   7.8949

     occupation numbers 
     1.0000   1.0000   1.0000   1.0000  -0.0000  -0.0000  -0.0000  -0.0000

          k = 0.1667 0.3849 0.0000     band energies (ev):

   -16.9683  -9.9870  -7.9717  -4.5530   3.9872   6.8455   8.3482   9.3998

     occupation numbers 
     1.0000   1.0000   1.0000   1.0000  -0.0000  -0.0000  -0.0000  -0.0000

          k = 0.1667 0.4811 0.0000     band energies (ev):

   -15.5890 -11.9024  -8.5481  -3.1225   2.0687   8.8279   9.5976  10.0942

     occupation numbers 
     1.0000   1.0000   1.0000   1.0000  -0.0000  -0.0000  -0.0000  -0.0000

          k = 0.1667 0.5774 0.0000     band energies (ev):

   -14.3494 -13.3430  -8.7332  -2.2272   0.9971   9.4989  11.1155  11.2862

     occupation numbers 
     1.0000   1.0000   1.0000   1.0000  -0.0000  -0.0000  -0.0000  -0.0000

          k = 0.2500 0.4330 0.0000     band energies (ev):

   -15.7372 -11.0225  -9.4596  -3.2069   2.3680   8.6127   9.7681  11.1434

     occupation numbers 
     1.0000   1.0000   1.0000   1.0000  -0.0000  -0.0000  -0.0000  -0.0000

          k = 0.2500 0.5292 0.0000     band energies (ev):

   -14.3109 -12.4480 -10.1682  -1.8174   0.8434  10.4602  10.7450  11.7653

     occupation numbers 
     1.0000   1.0000   1.0000   1.0000  -0.0000  -0.0000  -0.0000  -0.0000

          k = 0.3333 0.5774 0.0000     band energies (ev):

   -13.0899 -13.0899 -11.0694  -0.4579  -0.4579  10.1716  12.4180  12.4180

     occupation numbers 
     1.0000   1.0000   1.0000   0.5000   0.5000  -0.0000  -0.0000  -0.0000

     the Fermi energy is    -0.4579 ev

!    total energy              =     -36.88851133 Ry
     Harris-Foulkes estimate   =     -36.88852407 Ry
     estimated scf accuracy    <       0.00001986 Ry

     total all-electron energy =      -152.416714 Ry

     The total energy is the sum of the following terms:

     one-electron contribution =     -90.47977133 Ry
     hartree contribution      =      47.22490938 Ry
     xc contribution           =      -8.29659649 Ry
     ewald contribution        =      27.96304911 Ry
     scf correction            =       0.00751092 Ry
     one-center paw contrib.   =     -13.30745620 Ry
      -> PAW hartree energy AE =      11.17946500 Ry
      -> PAW hartree energy PS =     -11.16458704 Ry
      -> PAW xc energy AE      =     -11.00016155 Ry
      -> PAW xc energy PS      =       4.33155548 Ry
      -> total E_H with PAW    =      47.23978734 Ry
      -> total E_XC with PAW   =     -14.96520256 Ry
     smearing contrib. (-TS)   =      -0.00015672 Ry

     iteration #  8     ecut=    52.00 Ry     beta= 0.70
     Davidson diagonalization with overlap
     ethr =  2.48E-07,  avg # of iterations =  3.7

     negative rho (up, down):  2.722E-05 0.000E+00

     total cpu time spent up to now is       12.0 secs

          k = 0.0000 0.0000 0.0000     band energies (ev):

   -19.9871  -8.0776  -3.4774  -3.4774   2.5774   4.2173   5.2378   7.9119

     occupation numbers 
     1.0000   1.0000   1.0000   1.0000  -0.0000  -0.0000  -0.0000  -0.0000

          k = 0.0000 0.0962 0.0000     band energies (ev):

   -19.8228  -7.8810  -4.1290  -3.8170   2.8020   4.4395   5.4585   7.9808

     occupation numbers 
     1.0000   1.0000   1.0000   1.0000  -0.0000  -0.0000  -0.0000  -0.0000

          k = 0.0000 0.1925 0.0000     band energies (ev):

   -19.3315  -7.2965  -5.7696  -4.6120   3.4759   5.1034   6.1199   7.9382

     occupation numbers 
     1.0000   1.0000   1.0000   1.0000  -0.0000  -0.0000  -0.0000  -0.0000

          k = 0.0000 0.2887 0.0000     band energies (ev):

   -18.5190  -7.8725  -6.3430  -5.4944   4.5974   6.1577   6.9108   7.1885

     occupation numbers 
     1.0000   1.0000   1.0000   1.0000  -0.0000  -0.0000  -0.0000  -0.0000

          k = 0.0000 0.3849 0.0000     band energies (ev):

   -17.3973 -10.0810  -6.2299  -5.0712   4.4997   6.1587   7.3136   7.7790

     occupation numbers 
     1.0000   1.0000   1.0000   1.0000  -0.0000  -0.0000  -0.0000  -0.0000

          k = 0.0000 0.4811 0.0000     band energies (ev):

   -15.9975 -12.1869  -6.7041  -3.6438   2.3552   7.0648   8.1817   9.7194

     occupation numbers 
     1.0000   1.0000   1.0000   1.0000  -0.0000  -0.0000  -0.0000  -0.0000

          k = 0.0000-0.5774 0.0000     band energies (ev):

   -14.7275 -13.7001  -6.8669  -2.7958   1.2524   6.9868  10.5244  10.6540

     occupation numbers 
     1.0000   1.0000   1.0000   1.0000  -0.0000  -0.0000  -0.0000  -0.0000

          k = 0.0833 0.1443 0.0000     band energies (ev):

   -19.4949  -7.4903  -5.1641  -4.4969   3.2515   4.8829   5.9006   8.2810

     occupation numbers 
     1.0000   1.0000   1.0000   1.0000  -0.0000  -0.0000  -0.0000  -0.0000

          k = 0.0833 0.2406 0.0000     band energies (ev):

   -18.8430  -6.8771  -6.7201  -5.4982   4.1498   5.7622   6.7838   7.7032

     occupation numbers 
     1.0000   1.0000   1.0000   1.0000  -0.0000  -0.0000  -0.0000  -0.0000

          k = 0.0833 0.3368 0.0000     band energies (ev):

   -17.8758  -8.9550  -6.3867  -5.6010   5.4937   5.5189   7.1073   8.0004

     occupation numbers 
     1.0000   1.0000   1.0000   1.0000  -0.0000  -0.0000  -0.0000  -0.0000

          k = 0.0833 0.4330 0.0000     band energies (ev):

   -16.6120 -11.0833  -7.0231  -4.2172   3.3071   7.2673   7.9082   8.8272

     occupation numbers 
     1.0000   1.0000   1.0000   1.0000  -0.0000  -0.0000  -0.0000  -0.0000

          k = 0.0833 0.5292 0.0000     band energies (ev):

   -15.1275 -13.0311  -7.3523  -2.9032   1.5307   7.7267   9.4954  10.8887

     occupation numbers 
     1.0000   1.0000   1.0000   1.0000  -0.0000  -0.0000  -0.0000  -0.0000

          k = 0.1667 0.2887 0.0000     band energies (ev):

   -18.0364  -8.2089  -6.8652  -5.7804   5.2712   5.9766   6.8508   7.8919

     occupation numbers 
     1.0000   1.0000   1.0000   1.0000  -0.0000  -0.0000  -0.0000  -0.0000

          k = 0.1667 0.3849 0.0000     band energies (ev):

   -16.9256  -9.9406  -7.9241  -4.5236   4.0207   6.8339   8.3336   9.4014

     occupation numbers 
     1.0000   1.0000   1.0000   1.0000  -0.0000  -0.0000  -0.0000  -0.0000

          k = 0.1667 0.4811 0.0000     band energies (ev):

   -15.5457 -11.8572  -8.5008  -3.0922   2.1006   8.8180   9.6371  10.0848

     occupation numbers 
     1.0000   1.0000   1.0000   1.0000  -0.0000  -0.0000  -0.0000  -0.0000

          k = 0.1667 0.5774 0.0000     band energies (ev):

   -14.3054 -13.2988  -8.6859  -2.1960   1.0278   9.5392  11.1087  11.2774

     occupation numbers 
     1.0000   1.0000   1.0000   1.0000  -0.0000  -0.0000  -0.0000  -0.0000

          k = 0.2500 0.4330 0.0000     band energies (ev):

   -15.6939 -10.9765  -9.4133  -3.1768   2.4009   8.6020   9.7599  11.1437

     occupation numbers 
     1.0000   1.0000   1.0000   1.0000  -0.0000  -0.0000  -0.0000  -0.0000

          k = 0.2500 0.5292 0.0000     band energies (ev):

   -14.2669 -12.4030 -10.1223  -1.7863   0.8753  10.4679  10.7378  11.8028

     occupation numbers 
     1.0000   1.0000   1.0000   1.0000  -0.0000  -0.0000  -0.0000  -0.0000

          k = 0.3333 0.5774 0.0000     band energies (ev):

   -13.0451 -13.0451 -11.0243  -0.4261  -0.4261  10.1824  12.4304  12.4304

     occupation numbers 
     1.0000   1.0000   1.0000   0.5000   0.5000  -0.0000  -0.0000  -0.0000

     the Fermi energy is    -0.4261 ev

!    total energy              =     -36.88851948 Ry
     Harris-Foulkes estimate   =     -36.88852092 Ry
     estimated scf accuracy    <       0.00000255 Ry

     total all-electron energy =      -152.416722 Ry

     The total energy is the sum of the following terms:

     one-electron contribution =     -90.46243425 Ry
     hartree contribution      =      47.21830869 Ry
     xc contribution           =      -8.29549897 Ry
     ewald contribution        =      27.96304911 Ry
     scf correction            =      -0.00432563 Ry
     one-center paw contrib.   =     -13.30746170 Ry
      -> PAW hartree energy AE =      11.16957795 Ry
      -> PAW hartree energy PS =     -11.15470677 Ry
      -> PAW xc energy AE      =     -10.99797293 Ry
      -> PAW xc energy PS      =       4.32937090 Ry
      -> total E_H with PAW    =      47.23317987 Ry
      -> total E_XC with PAW   =     -14.96410100 Ry
     smearing contrib. (-TS)   =      -0.00015672 Ry

     iteration #  9     ecut=    52.00 Ry     beta= 0.70
     Davidson diagonalization with overlap
     ethr =  3.19E-08,  avg # of iterations =  2.4

     negative rho (up, down):  2.744E-05 0.000E+00

     total cpu time spent up to now is       13.0 secs

     End of self-consistent calculation

          k = 0.0000 0.0000 0.0000 (  2263 PWs)   bands (ev):

   -19.9978  -8.0849  -3.4907  -3.4907   2.5790   4.2193   5.2385   7.9002

     occupation numbers 
     1.0000   1.0000   1.0000   1.0000  -0.0000  -0.0000  -0.0000  -0.0000

          k = 0.0000 0.0962 0.0000 (  2265 PWs)   bands (ev):

   -19.8335  -7.8882  -4.1421  -3.8302   2.8037   4.4415   5.4592   7.9693

     occupation numbers 
     1.0000   1.0000   1.0000   1.0000  -0.0000  -0.0000  -0.0000  -0.0000

          k = 0.0000 0.1925 0.0000 (  2265 PWs)   bands (ev):

   -19.3422  -7.3037  -5.7823  -4.6250   3.4776   5.1054   6.1206   7.9273

     occupation numbers 
     1.0000   1.0000   1.0000   1.0000  -0.0000  -0.0000  -0.0000  -0.0000

          k = 0.0000 0.2887 0.0000 (  2247 PWs)   bands (ev):

   -18.5298  -7.8847  -6.3504  -5.5073   4.5990   6.1589   6.9025   7.1880

     occupation numbers 
     1.0000   1.0000   1.0000   1.0000  -0.0000  -0.0000  -0.0000  -0.0000

          k = 0.0000 0.3849 0.0000 (  2239 PWs)   bands (ev):

   -17.4082 -10.0929  -6.2427  -5.0787   4.4913   6.1600   7.3036   7.7806

     occupation numbers 
     1.0000   1.0000   1.0000   1.0000  -0.0000  -0.0000  -0.0000  -0.0000

          k = 0.0000 0.4811 0.0000 (  2240 PWs)   bands (ev):

   -16.0086 -12.1985  -6.7169  -3.6516   2.3473   7.0548   8.1830   9.7209

     occupation numbers 
     1.0000   1.0000   1.0000   1.0000  -0.0000  -0.0000  -0.0000  -0.0000

          k = 0.0000-0.5774 0.0000 (  2256 PWs)   bands (ev):

   -14.7388 -13.7115  -6.8796  -2.8039   1.2448   6.9768  10.5252  10.6551

     occupation numbers 
     1.0000   1.0000   1.0000   1.0000  -0.0000  -0.0000  -0.0000  -0.0000

          k = 0.0833 0.1443 0.0000 (  2245 PWs)   bands (ev):

   -19.5057  -7.4975  -5.1769  -4.5099   3.2531   4.8849   5.9014   8.2697

     occupation numbers 
     1.0000   1.0000   1.0000   1.0000  -0.0000  -0.0000  -0.0000  -0.0000

          k = 0.0833 0.2406 0.0000 (  2260 PWs)   bands (ev):

   -18.8538  -6.8896  -6.7275  -5.5109   4.1514   5.7641   6.7844   7.6939

     occupation numbers 
     1.0000   1.0000   1.0000   1.0000  -0.0000  -0.0000  -0.0000  -0.0000

          k = 0.0833 0.3368 0.0000 (  2240 PWs)   bands (ev):

   -17.8867  -8.9671  -6.3994  -5.6085   5.4952   5.5103   7.1089   7.9965

     occupation numbers 
     1.0000   1.0000   1.0000   1.0000  -0.0000  -0.0000  -0.0000  -0.0000

          k = 0.0833 0.4330 0.0000 (  2229 PWs)   bands (ev):

   -16.6231 -11.0951  -7.0357  -4.2249   3.2988   7.2683   7.8983   8.8287

     occupation numbers 
     1.0000   1.0000   1.0000   1.0000  -0.0000  -0.0000  -0.0000  -0.0000

          k = 0.0833 0.5292 0.0000 (  2244 PWs)   bands (ev):

   -15.1387 -13.0425  -7.3649  -2.9112   1.5228   7.7165   9.4966  10.8896

     occupation numbers 
     1.0000   1.0000   1.0000   1.0000  -0.0000  -0.0000  -0.0000  -0.0000

          k = 0.1667 0.2887 0.0000 (  2251 PWs)   bands (ev):

   -18.0473  -8.2212  -6.8776  -5.7878   5.2728   5.9675   6.8526   7.8926

     occupation numbers 
     1.0000   1.0000   1.0000   1.0000  -0.0000  -0.0000  -0.0000  -0.0000

          k = 0.1667 0.3849 0.0000 (  2248 PWs)   bands (ev):

   -16.9366  -9.9525  -7.9363  -4.5313   4.0120   6.8353   8.3351   9.4007

     occupation numbers 
     1.0000   1.0000   1.0000   1.0000  -0.0000  -0.0000  -0.0000  -0.0000

          k = 0.1667 0.4811 0.0000 (  2236 PWs)   bands (ev):

   -15.5569 -11.8689  -8.5130  -3.1001   2.0923   8.8191   9.6268  10.0854

     occupation numbers 
     1.0000   1.0000   1.0000   1.0000  -0.0000  -0.0000  -0.0000  -0.0000

          k = 0.1667 0.5774 0.0000 (  2226 PWs)   bands (ev):

   -14.3167 -13.3102  -8.6980  -2.2041   1.0198   9.5288  11.1091  11.2782

     occupation numbers 
     1.0000   1.0000   1.0000   1.0000  -0.0000  -0.0000  -0.0000  -0.0000

          k = 0.2500 0.4330 0.0000 (  2233 PWs)   bands (ev):

   -15.7051 -10.9883  -9.4252  -3.1846   2.3923   8.6033   9.7603  11.1434

     occupation numbers 
     1.0000   1.0000   1.0000   1.0000  -0.0000  -0.0000  -0.0000  -0.0000

          k = 0.2500 0.5292 0.0000 (  2231 PWs)   bands (ev):

   -14.2782 -12.4146 -10.1341  -1.7944   0.8670  10.4654  10.7383  11.7931

     occupation numbers 
     1.0000   1.0000   1.0000   1.0000  -0.0000  -0.0000  -0.0000  -0.0000

          k = 0.3333 0.5774 0.0000 (  2244 PWs)   bands (ev):

   -13.0566 -13.0566 -11.0359  -0.4344  -0.4344  10.1793  12.4266  12.4267

     occupation numbers 
     1.0000   1.0000   1.0000   0.5000   0.5000  -0.0000  -0.0000  -0.0000

     the Fermi energy is    -0.4344 ev

!    total energy              =     -36.88851987 Ry
     Harris-Foulkes estimate   =     -36.88852010 Ry
     estimated scf accuracy    <       0.00000035 Ry

     total all-electron energy =      -152.416723 Ry

     The total energy is the sum of the following terms:

     one-electron contribution =     -90.46329498 Ry
     hartree contribution      =      47.21414038 Ry
     xc contribution           =      -8.29483047 Ry
     ewald contribution        =      27.96304911 Ry
     one-center paw contrib.   =     -13.30742719 Ry
      -> PAW hartree energy AE =      11.16506227 Ry
      -> PAW hartree energy PS =     -11.15019573 Ry
      -> PAW xc energy AE      =     -10.99695724 Ry
      -> PAW xc energy PS      =       4.32837710 Ry
      -> total E_H with PAW    =      47.22900692 Ry
      -> total E_XC with PAW   =     -14.96341061 Ry
     smearing contrib. (-TS)   =      -0.00015672 Ry

     convergence has been achieved in   9 iterations

     negative rho (up, down):  2.744E-05 0.000E+00

     Forces acting on atoms (cartesian axes, Ry/au):

     atom    1 type  1   force =     0.00000000    0.00000000    0.00000000
     atom    2 type  1   force =     0.00000000    0.00000000    0.00000000
     The non-local contrib.  to forces
     atom    1 type  1   force =     0.00000000   -0.00000000    0.00000000
     atom    2 type  1   force =     0.00000000   -0.00000000    0.00000000
     The ionic contribution  to forces
     atom    1 type  1   force =    -0.00000001    0.00000000    0.00000000
     atom    2 type  1   force =     0.00000001   -0.00000000    0.00000000
     The local contribution  to forces
     atom    1 type  1   force =     0.00000000    0.00000001   -0.00000000
     atom    2 type  1   force =     0.00000001    0.00000000   -0.00000000
     The core correction contribution to forces
     atom    1 type  1   force =    -0.00000000   -0.00000000   -0.00000000
     atom    2 type  1   force =    -0.00000000   -0.00000000   -0.00000000
     The Hubbard contrib.    to forces
     atom    1 type  1   force =     0.00000000    0.00000000    0.00000000
     atom    2 type  1   force =     0.00000000    0.00000000    0.00000000
     The SCF correction term to forces
     atom    1 type  1   force =    -0.00000000    0.00000000    0.00000000
     atom    2 type  1   force =     0.00000000    0.00000000    0.00000000

     Total force =     0.000000     Total SCF correction =     0.000000


     Computing stress (Cartesian axis) and pressure


     negative rho (up, down):  2.744E-05 0.000E+00
          total   stress  (Ry/bohr**3)                   (kbar)     P=        2.92
   0.00003806   0.00000000   0.00000000            5.60        0.00        0.00
   0.00000000   0.00003806  -0.00000000            0.00        5.60       -0.00
   0.00000000  -0.00000000  -0.00001657            0.00       -0.00       -2.44

     kinetic stress (kbar)   3821.05     -0.00      0.00
                               -0.00   3821.05      0.00
                                0.00      0.00   4357.35

     local   stress (kbar) -43261.72      0.00     -0.00
                                0.00 -43261.72     -0.00
                               -0.00     -0.00  42397.03

     nonloc. stress (kbar)   1349.14      0.00      0.00
                                0.00   1349.14      0.00
                                0.00      0.00   1217.30

     hartree stress (kbar)  19258.38     -0.00      0.00
                               -0.00  19258.38      0.00
                                0.00      0.00 -18915.20

     exc-cor stress (kbar)   -446.08     -0.00      0.00
                               -0.00   -446.08      0.00
                                0.00      0.00   -487.72

     corecor stress (kbar)   -540.98      0.00     -0.00
                                0.00   -540.98     -0.00
                               -0.00     -0.00   -528.77

     ewald   stress (kbar)  19825.82     -0.00      0.00
                               -0.00  19825.82      0.00
                                0.00      0.00 -28042.43

     hubbard stress (kbar)      0.00      0.00      0.00
                                0.00      0.00      0.00
                                0.00      0.00      0.00

     london  stress (kbar)      0.00      0.00      0.00
                                0.00      0.00      0.00
                                0.00      0.00      0.00

     DFT-D3  stress (kbar)      0.00      0.00      0.00
                                0.00      0.00      0.00
                                0.00      0.00      0.00

     XDM     stress (kbar)      0.00      0.00      0.00
                                0.00      0.00      0.00
                                0.00      0.00      0.00

     dft-nl  stress (kbar)      0.00      0.00      0.00
                                0.00      0.00      0.00
                                0.00      0.00      0.00

     TS-vdW  stress (kbar)      0.00      0.00      0.00
                                0.00      0.00      0.00
                                0.00      0.00      0.00



     BFGS Geometry Optimization

     number of scf cycles    =   1
     number of bfgs steps    =   0

     enthalpy new            =     -36.8885198686 Ry

     new trust radius        =       0.0035824172 bohr
     new conv_thr            =       0.0000010000 Ry

     new unit-cell volume =    355.00568 a.u.^3 (    52.60641 Ang^3 )
     density =      0.75826 g/cm^3

CELL_PARAMETERS (alat=  4.65307266)
   1.000951572   0.000000000   0.000000000
  -0.500475786   0.866849489   0.000000000
   0.000000000   0.000000000   4.061243553

ATOMIC_POSITIONS (crystal)
C             0.3333333330        0.6666666660        0.5000000000
C             0.6666666660        0.3333333330        0.5000000000



     Writing output data file ./Gr.save/
     NEW-OLD atomic charge density approx. for the potential

     Check: negative core charge=   -0.000003

     negative rho (up, down):  2.678E-05 0.000E+00
     extrapolated charge    8.01520, renormalised to    8.00000

     total cpu time spent up to now is       15.8 secs

     Self-consistent Calculation

     iteration #  1     ecut=    52.00 Ry     beta= 0.70
     Davidson diagonalization with overlap
     ethr =  1.00E-06,  avg # of iterations =  3.9

     negative rho (up, down):  2.599E-05 0.000E+00

     total cpu time spent up to now is       17.4 secs

          k = 0.0000 0.0000 0.0000     band energies (ev):

   -19.6917  -7.8272  -3.1873  -3.1873   2.5232   4.1717   5.1633   8.1757

     occupation numbers 
     1.0000   1.0000   1.0000   1.0000  -0.0000  -0.0000  -0.0000  -0.0000

          k =-0.0000 0.0961 0.0000     band energies (ev):

   -19.5274  -7.6308  -3.8394  -3.5263   2.7481   4.3939   5.3838   8.2417

     occupation numbers 
     1.0000   1.0000   1.0000   1.0000  -0.0000  -0.0000  -0.0000  -0.0000

          k =-0.0000 0.1923 0.0000     band energies (ev):

   -19.0365  -7.0468  -5.4806  -4.3199   3.4228   5.0579   6.0450   8.1901

     occupation numbers 
     1.0000   1.0000   1.0000   1.0000  -0.0000  -0.0000  -0.0000  -0.0000

          k =-0.0000 0.2884 0.0000     band energies (ev):

   -18.2247  -7.5833  -6.0943  -5.2008   4.5458   6.1276   7.1294   7.1313

     occupation numbers 
     1.0000   1.0000   1.0000   1.0000  -0.0000  -0.0000  -0.0000  -0.0000

          k =-0.0000 0.3845 0.0000     band energies (ev):

   -17.1041  -9.7908  -5.9349  -4.8233   4.7324   6.1118   7.5485   7.7370

     occupation numbers 
     1.0000   1.0000   1.0000   1.0000  -0.0000  -0.0000  -0.0000  -0.0000

          k =-0.0000 0.4807 0.0000     band energies (ev):

   -15.7059 -11.8949  -6.4083  -3.3963   2.5898   7.3043   8.1358   9.6808

     occupation numbers 
     1.0000   1.0000   1.0000   1.0000  -0.0000  -0.0000  -0.0000  -0.0000

          k = 0.0000-0.5768 0.0000     band energies (ev):

[...]
     Harris-Foulkes estimate   =     -36.88854389 Ry
     estimated scf accuracy    <       0.00000003 Ry

     total all-electron energy =      -152.416747 Ry

     The total energy is the sum of the following terms:

     one-electron contribution =     -90.20988223 Ry
     hartree contribution      =      47.08344186 Ry
     xc contribution           =      -8.28908486 Ry
     ewald contribution        =      27.83333893 Ry
     scf correction            =       0.00102478 Ry
     one-center paw contrib.   =     -13.30722564 Ry
      -> PAW hartree energy AE =      11.11734449 Ry
      -> PAW hartree energy PS =     -11.10252294 Ry
      -> PAW xc energy AE      =     -10.98624761 Ry
      -> PAW xc energy PS      =       4.31781321 Ry
      -> total E_H with PAW    =      47.09826342 Ry
      -> total E_XC with PAW   =     -14.95751925 Ry
     smearing contrib. (-TS)   =      -0.00015672 Ry

     iteration # 11     ecut=    52.00 Ry     beta= 0.70
     Davidson diagonalization with overlap
     ethr =  1.73E-10,  avg # of iterations =  1.0

     negative rho (up, down):  2.680E-05 0.000E+00

     total cpu time spent up to now is       73.7 secs

          k = 0.0000 0.0000 0.0000     band energies (ev):

   -19.9864  -8.0776  -3.5145  -3.5145   2.5736   4.2131   5.2346   7.8517

     occupation numbers 
     1.0000   1.0000   1.0000   1.0000  -0.0000  -0.0000  -0.0000  -0.0000

          k =-0.0000 0.0961 0.0000     band energies (ev):

   -19.8225  -7.8816  -4.1648  -3.8525   2.7977   4.4347   5.4546   7.9199

     occupation numbers 
     1.0000   1.0000   1.0000   1.0000  -0.0000  -0.0000  -0.0000  -0.0000

          k =-0.0000 0.1922 0.0000     band energies (ev):

   -19.3324  -7.2991  -5.8019  -4.6441   3.4697   5.0966   6.1141   7.8742

     occupation numbers 
     1.0000   1.0000   1.0000   1.0000  -0.0000  -0.0000  -0.0000  -0.0000

          k =-0.0000 0.2883 0.0000     band energies (ev):

   -18.5220  -7.8998  -6.3491  -5.5230   4.5881   6.1446   6.8565   7.1746

     occupation numbers 
     1.0000   1.0000   1.0000   1.0000  -0.0000  -0.0000  -0.0000  -0.0000

          k =-0.0000 0.3844 0.0000     band energies (ev):

   -17.4034 -10.1028  -6.2557  -5.0819   4.4544   6.1446   7.2448   7.7635

     occupation numbers 
     1.0000   1.0000   1.0000   1.0000  -0.0000  -0.0000  -0.0000  -0.0000

          k =-0.0000 0.4805 0.0000     band energies (ev):

   -16.0079 -12.2026  -6.7281  -3.6604   2.3198   6.9944   8.1617   9.6978

     occupation numbers 
     1.0000   1.0000   1.0000   1.0000  -0.0000  -0.0000  -0.0000  -0.0000

          k = 0.0000-0.5766 0.0000     band energies (ev):

   -14.7463 -13.7069  -6.8904  -2.8164   1.2225   6.9156  10.4957  10.6291

     occupation numbers 
     1.0000   1.0000   1.0000   1.0000  -0.0000  -0.0000  -0.0000  -0.0000

          k = 0.0832 0.1441 0.0000     band energies (ev):

   -19.4955  -7.4922  -5.1981  -4.5293   3.2459   4.8768   5.8956   8.2197

     occupation numbers 
     1.0000   1.0000   1.0000   1.0000  -0.0000  -0.0000  -0.0000  -0.0000

          k = 0.0832 0.2402 0.0000     band energies (ev):

   -18.8452  -6.9075  -6.7248  -5.5266   4.1417   5.7533   6.7761   7.6411

     occupation numbers 
     1.0000   1.0000   1.0000   1.0000  -0.0000  -0.0000  -0.0000  -0.0000

          k = 0.0832 0.3363 0.0000     band energies (ev):

   -17.8806  -8.9801  -6.4122  -5.6097   5.4684   5.4818   7.0936   7.9646

     occupation numbers 
     1.0000   1.0000   1.0000   1.0000  -0.0000  -0.0000  -0.0000  -0.0000

          k = 0.0832 0.4324 0.0000     band energies (ev):

   -16.6203 -11.1027  -7.0465  -4.2313   3.2665   7.2492   7.8376   8.8083

     occupation numbers 
     1.0000   1.0000   1.0000   1.0000  -0.0000  -0.0000  -0.0000  -0.0000

          k = 0.0832 0.5285 0.0000     band energies (ev):

   -15.1416 -13.0434  -7.3746  -2.9230   1.4986   7.6541   9.4718  10.8618

     occupation numbers 
     1.0000   1.0000   1.0000   1.0000  -0.0000  -0.0000  -0.0000  -0.0000

          k = 0.1664 0.2883 0.0000     band energies (ev):

   -18.0407  -8.2377  -6.8879  -5.7884   5.2600   5.9223   6.8386   7.8811

     occupation numbers 
     1.0000   1.0000   1.0000   1.0000  -0.0000  -0.0000  -0.0000  -0.0000

          k = 0.1664 0.3844 0.0000     band energies (ev):

   -16.9330  -9.9648  -7.9438  -4.5364   3.9752   6.8182   8.3163   9.3804

     occupation numbers 
     1.0000   1.0000   1.0000   1.0000  -0.0000  -0.0000  -0.0000  -0.0000

          k = 0.1664 0.4805 0.0000     band energies (ev):

   -15.5574 -11.8752  -8.5195  -3.1107   2.0639   8.7960   9.5618  10.0600

     occupation numbers 
     1.0000   1.0000   1.0000   1.0000  -0.0000  -0.0000  -0.0000  -0.0000

          k = 0.1664 0.5766 0.0000     band energies (ev):

   -14.3247 -13.3083  -8.7043  -2.2186   0.9963   9.4627  11.0774  11.2017

     occupation numbers 
     1.0000   1.0000   1.0000   1.0000  -0.0000  -0.0000  -0.0000  -0.0000

          k = 0.2497 0.4324 0.0000     band energies (ev):

   -15.7049 -11.0008  -9.4261  -3.1947   2.3615   8.5812   9.7359  11.1198

     occupation numbers 
     1.0000   1.0000   1.0000   1.0000  -0.0000  -0.0000  -0.0000  -0.0000

          k = 0.2497 0.5285 0.0000     band energies (ev):

   -14.2832 -12.4216 -10.1337  -1.8100   0.8422  10.4382  10.7090  11.7254

     occupation numbers 
     1.0000   1.0000   1.0000   1.0000  -0.0000  -0.0000  -0.0000  -0.0000

          k = 0.3329 0.5766 0.0000     band energies (ev):

   -13.0662 -13.0662 -11.0276  -0.4550  -0.4550  10.1544  12.3796  12.3796

     occupation numbers 
     1.0000   1.0000   1.0000   0.5000   0.5000  -0.0000  -0.0000  -0.0000

     the Fermi energy is    -0.4550 ev

!    total energy              =     -36.88854388 Ry
     Harris-Foulkes estimate   =     -36.88854388 Ry
     estimated scf accuracy    <       0.00000001 Ry

     total all-electron energy =      -152.416747 Ry

     The total energy is the sum of the following terms:

     one-electron contribution =     -90.20979757 Ry
     hartree contribution      =      47.08440870 Ry
     xc contribution           =      -8.28919846 Ry
     ewald contribution        =      27.83333893 Ry
     scf correction            =       0.00007957 Ry
     one-center paw contrib.   =     -13.30721833 Ry
      -> PAW hartree energy AE =      11.11866873 Ry
      -> PAW hartree energy PS =     -11.10384649 Ry
      -> PAW xc energy AE      =     -10.98653422 Ry
      -> PAW xc energy PS      =       4.31810282 Ry
      -> total E_H with PAW    =      47.09923094 Ry
      -> total E_XC with PAW   =     -14.95762986 Ry
     smearing contrib. (-TS)   =      -0.00015672 Ry

     iteration # 12     ecut=    52.00 Ry     beta= 0.70
     Davidson diagonalization with overlap
     ethr =  1.60E-10,  avg # of iterations =  3.1

     negative rho (up, down):  2.682E-05 0.000E+00

     total cpu time spent up to now is       74.7 secs

     End of self-consistent calculation

          k = 0.0000 0.0000 0.0000 (  2287 PWs)   bands (ev):

   -19.9848  -8.0764  -3.5127  -3.5127   2.5732   4.2126   5.2344   7.8534

     occupation numbers 
     1.0000   1.0000   1.0000   1.0000  -0.0000  -0.0000  -0.0000  -0.0000

          k =-0.0000 0.0961 0.0000 (  2281 PWs)   bands (ev):

   -19.8209  -7.8804  -4.1630  -3.8507   2.7973   4.4342   5.4545   7.9216

     occupation numbers 
     1.0000   1.0000   1.0000   1.0000  -0.0000  -0.0000  -0.0000  -0.0000

          k =-0.0000 0.1922 0.0000 (  2269 PWs)   bands (ev):

   -19.3308  -7.2979  -5.8001  -4.6423   3.4694   5.0961   6.1140   7.8758

     occupation numbers 
     1.0000   1.0000   1.0000   1.0000  -0.0000  -0.0000  -0.0000  -0.0000

          k =-0.0000 0.2883 0.0000 (  2247 PWs)   bands (ev):

   -18.5204  -7.8981  -6.3478  -5.5212   4.5878   6.1442   6.8577   7.1747

     occupation numbers 
     1.0000   1.0000   1.0000   1.0000  -0.0000  -0.0000  -0.0000  -0.0000

          k =-0.0000 0.3844 0.0000 (  2241 PWs)   bands (ev):

   -17.4018 -10.1011  -6.2539  -5.0806   4.4557   6.1443   7.2463   7.7630

     occupation numbers 
     1.0000   1.0000   1.0000   1.0000  -0.0000  -0.0000  -0.0000  -0.0000

          k =-0.0000 0.4805 0.0000 (  2244 PWs)   bands (ev):

   -16.0062 -12.2010  -6.7264  -3.6591   2.3211   6.9960   8.1614   9.6974

     occupation numbers 
     1.0000   1.0000   1.0000   1.0000  -0.0000  -0.0000  -0.0000  -0.0000

          k = 0.0000-0.5766 0.0000 (  2264 PWs)   bands (ev):

   -14.7446 -13.7053  -6.8886  -2.8151   1.2237   6.9171  10.4956  10.6288

     occupation numbers 
     1.0000   1.0000   1.0000   1.0000  -0.0000  -0.0000  -0.0000  -0.0000

          k = 0.0832 0.1441 0.0000 (  2265 PWs)   bands (ev):

   -19.4939  -7.4910  -5.1964  -4.5275   3.2455   4.8763   5.8955   8.2214

     occupation numbers 
     1.0000   1.0000   1.0000   1.0000  -0.0000  -0.0000  -0.0000  -0.0000

          k = 0.0832 0.2402 0.0000 (  2268 PWs)   bands (ev):

   -18.8437  -6.9057  -6.7236  -5.5248   4.1414   5.7528   6.7760   7.6425

     occupation numbers 
     1.0000   1.0000   1.0000   1.0000  -0.0000  -0.0000  -0.0000  -0.0000

          k = 0.0832 0.3363 0.0000 (  2242 PWs)   bands (ev):

   -17.8790  -8.9784  -6.4104  -5.6085   5.4698   5.4815   7.0931   7.9653

     occupation numbers 
     1.0000   1.0000   1.0000   1.0000  -0.0000  -0.0000  -0.0000  -0.0000

          k = 0.0832 0.4324 0.0000 (  2239 PWs)   bands (ev):

   -16.6187 -11.1010  -7.0447  -4.2300   3.2678   7.2490   7.8391   8.8079

     occupation numbers 
     1.0000   1.0000   1.0000   1.0000  -0.0000  -0.0000  -0.0000  -0.0000

          k = 0.0832 0.5285 0.0000 (  2246 PWs)   bands (ev):

   -15.1400 -13.0418  -7.3729  -2.9217   1.4999   7.6557   9.4716  10.8615

     occupation numbers 
     1.0000   1.0000   1.0000   1.0000  -0.0000  -0.0000  -0.0000  -0.0000

          k = 0.1664 0.2883 0.0000 (  2251 PWs)   bands (ev):

   -18.0391  -8.2359  -6.8861  -5.7872   5.2597   5.9237   6.8381   7.8810

     occupation numbers 
     1.0000   1.0000   1.0000   1.0000  -0.0000  -0.0000  -0.0000  -0.0000

          k = 0.1664 0.3844 0.0000 (  2254 PWs)   bands (ev):

   -16.9314  -9.9631  -7.9420  -4.5351   3.9766   6.8179   8.3159   9.3805

     occupation numbers 
     1.0000   1.0000   1.0000   1.0000  -0.0000  -0.0000  -0.0000  -0.0000

          k = 0.1664 0.4805 0.0000 (  2242 PWs)   bands (ev):

   -15.5557 -11.8735  -8.5178  -3.1094   2.0652   8.7958   9.5633  10.0598

     occupation numbers 
     1.0000   1.0000   1.0000   1.0000  -0.0000  -0.0000  -0.0000  -0.0000

          k = 0.1664 0.5766 0.0000 (  2242 PWs)   bands (ev):

   -14.3231 -13.3067  -8.7026  -2.2173   0.9976   9.4643  11.0774  11.2020

     occupation numbers 
     1.0000   1.0000   1.0000   1.0000  -0.0000  -0.0000  -0.0000  -0.0000

          k = 0.2497 0.4324 0.0000 (  2245 PWs)   bands (ev):

   -15.7033 -10.9991  -9.4244  -3.1935   2.3628   8.5809   9.7358  11.1197

     occupation numbers 
     1.0000   1.0000   1.0000   1.0000  -0.0000  -0.0000  -0.0000  -0.0000

          k = 0.2497 0.5285 0.0000 (  2237 PWs)   bands (ev):

   -14.2815 -12.4200 -10.1320  -1.8087   0.8435  10.4387  10.7089  11.7268

     occupation numbers 
     1.0000   1.0000   1.0000   1.0000  -0.0000  -0.0000  -0.0000  -0.0000

          k = 0.3329 0.5766 0.0000 (  2244 PWs)   bands (ev):

   -13.0646 -13.0646 -11.0259  -0.4537  -0.4537  10.1550  12.3802  12.3802

     occupation numbers 
     1.0000   1.0000   1.0000   0.5000   0.5000  -0.0000  -0.0000  -0.0000

     the Fermi energy is    -0.4537 ev

!    total energy              =     -36.88854388 Ry
     Harris-Foulkes estimate   =     -36.88854388 Ry
     estimated scf accuracy    <          2.0E-09 Ry

     total all-electron energy =      -152.416747 Ry

     The total energy is the sum of the following terms:

     one-electron contribution =     -90.20937783 Ry
     hartree contribution      =      47.08401047 Ry
     xc contribution           =      -8.28914360 Ry
     ewald contribution        =      27.83333893 Ry
     one-center paw contrib.   =     -13.30721514 Ry
      -> PAW hartree energy AE =      11.11836227 Ry
      -> PAW hartree energy PS =     -11.10354039 Ry
      -> PAW xc energy AE      =     -10.98646590 Ry
      -> PAW xc energy PS      =       4.31803644 Ry
      -> total E_H with PAW    =      47.09883236 Ry
      -> total E_XC with PAW   =     -14.95757305 Ry
     smearing contrib. (-TS)   =      -0.00015672 Ry

     convergence has been achieved in  12 iterations

     negative rho (up, down):  2.682E-05 0.000E+00

     Forces acting on atoms (cartesian axes, Ry/au):

     atom    1 type  1   force =     0.00000000    0.00000000    0.00000000
     atom    2 type  1   force =    -0.00000000   -0.00000000    0.00000000
     The non-local contrib.  to forces
     atom    1 type  1   force =     0.00000000    0.00000000    0.00000000
     atom    2 type  1   force =    -0.00000000    0.00000000   -0.00000000
     The ionic contribution  to forces
     atom    1 type  1   force =    -0.00000001    0.00000000    0.00000000
     atom    2 type  1   force =     0.00000001   -0.00000000   -0.00000000
     The local contribution  to forces
     atom    1 type  1   force =     0.00000000    0.00000001   -0.00000000
     atom    2 type  1   force =     0.00000001    0.00000000   -0.00000000
     The core correction contribution to forces
     atom    1 type  1   force =    -0.00000000   -0.00000000   -0.00000000
     atom    2 type  1   force =    -0.00000000   -0.00000000   -0.00000000
     The Hubbard contrib.    to forces
     atom    1 type  1   force =     0.00000000    0.00000000    0.00000000
     atom    2 type  1   force =     0.00000000    0.00000000    0.00000000
     The SCF correction term to forces
     atom    1 type  1   force =    -0.00000000    0.00000000   -0.00000000
     atom    2 type  1   force =     0.00000000    0.00000000   -0.00000000

     Total force =     0.000000     Total SCF correction =     0.000000


     Computing stress (Cartesian axis) and pressure


     negative rho (up, down):  2.682E-05 0.000E+00
          total   stress  (Ry/bohr**3)                   (kbar)     P=       -0.32
  -0.00000039   0.00000000   0.00000000           -0.06        0.00        0.00
   0.00000000  -0.00000039  -0.00000000            0.00       -0.06       -0.00
   0.00000000  -0.00000000  -0.00000579            0.00       -0.00       -0.85

     kinetic stress (kbar)   3804.51     -0.00      0.00
                               -0.00   3804.51      0.00
                                0.00     -0.00   4342.76

     local   stress (kbar) -43023.85      0.00      0.00
                                0.00 -43023.85      0.00
                                0.00      0.00  42153.83

     nonloc. stress (kbar)   1344.55      0.00      0.00
                                0.00   1344.55      0.00
                                0.00      0.00   1213.74

     hartree stress (kbar)  19151.19     -0.00      0.00
                               -0.00  19151.19      0.00
                                0.00      0.00 -18807.96

     exc-cor stress (kbar)   -444.23     -0.00      0.00
                               -0.00   -444.23     -0.00
                                0.00     -0.00   -485.69

     corecor stress (kbar)   -539.34      0.00     -0.00
                                0.00   -539.34     -0.00
                               -0.00     -0.00   -527.27

     ewald   stress (kbar)  19707.11     -0.00     -0.00
                               -0.00  19707.11     -0.00
                               -0.00     -0.00 -27890.25

     hubbard stress (kbar)      0.00      0.00      0.00
                                0.00      0.00      0.00
                                0.00      0.00      0.00

     london  stress (kbar)      0.00      0.00      0.00
                                0.00      0.00      0.00
                                0.00      0.00      0.00

     DFT-D3  stress (kbar)      0.00      0.00      0.00
                                0.00      0.00      0.00
                                0.00      0.00      0.00

     XDM     stress (kbar)      0.00      0.00      0.00
                                0.00      0.00      0.00
                                0.00      0.00      0.00

     dft-nl  stress (kbar)      0.00      0.00      0.00
                                0.00      0.00      0.00
                                0.00      0.00      0.00

     TS-vdW  stress (kbar)      0.00      0.00      0.00
                                0.00      0.00      0.00
                                0.00      0.00      0.00



     Writing output data file ./Gr.save/

     init_run     :      3.52s CPU      3.61s WALL (       2 calls)
     electrons    :     58.45s CPU     59.66s WALL (       5 calls)
     update_pot   :      2.76s CPU      2.76s WALL (       3 calls)
     forces       :      2.81s CPU      2.82s WALL (       5 calls)
     stress       :      6.66s CPU      6.66s WALL (       5 calls)

     Called by init_run:
     wfcinit      :      0.81s CPU      0.85s WALL (       2 calls)
     wfcinit:atom :      0.02s CPU      0.02s WALL (      38 calls)
     wfcinit:wfcr :      0.74s CPU      0.76s WALL (      38 calls)
     potinit      :      0.89s CPU      0.91s WALL (       2 calls)
     hinit0       :      1.65s CPU      1.66s WALL (       2 calls)

     Called by electrons:
     c_bands      :     45.47s CPU     46.50s WALL (      47 calls)
     sum_band     :      7.88s CPU      8.01s WALL (      47 calls)
     v_of_rho     :      1.56s CPU      1.58s WALL (      51 calls)
     v_h          :      0.09s CPU      0.09s WALL (      51 calls)
     v_xc         :      1.75s CPU      1.77s WALL (      61 calls)
     newd         :      0.57s CPU      0.57s WALL (      51 calls)
     PAW_pot      :      3.44s CPU      3.45s WALL (      54 calls)
     mix_rho      :      0.18s CPU      0.18s WALL (      47 calls)

     Called by c_bands:
     init_us_2    :      0.99s CPU      1.00s WALL (    2071 calls)
     cegterg      :     44.43s CPU     45.44s WALL (     893 calls)

     Called by sum_band:
     sum_band:bec :      0.01s CPU      0.01s WALL (     950 calls)
     addusdens    :      0.47s CPU      0.47s WALL (      47 calls)

     Called by *egterg:
     h_psi        :     38.17s CPU     39.07s WALL (    4123 calls)
     s_psi        :      0.97s CPU      1.00s WALL (    4123 calls)
     g_psi        :      0.26s CPU      0.27s WALL (    3192 calls)
     cdiaghg      :      1.05s CPU      1.08s WALL (    4009 calls)
     cegterg:over :      1.86s CPU      1.90s WALL (    3192 calls)
     cegterg:upda :      1.26s CPU      1.29s WALL (    3192 calls)
     cegterg:last :      0.70s CPU      0.72s WALL (    1027 calls)

     Called by h_psi:
     h_psi:calbec :      1.26s CPU      1.29s WALL (    4123 calls)
     vloc_psi     :     35.76s CPU     36.59s WALL (    4123 calls)
     add_vuspsi   :      1.00s CPU      1.03s WALL (    4123 calls)

     General routines
     calbec       :      1.90s CPU      1.94s WALL (    5548 calls)
     fft          :      0.98s CPU      0.99s WALL (     690 calls)
     ffts         :      0.07s CPU      0.07s WALL (      47 calls)
     fftw         :     38.49s CPU     39.35s WALL (   51144 calls)

     Parallel routines
     fft_scatt_xy :      4.14s CPU      4.23s WALL (   51881 calls)
     fft_scatt_yz :      4.56s CPU      4.68s WALL (   51881 calls)

     PAW routines
     PAW_pot      :      3.44s CPU      3.45s WALL (      54 calls)
     PAW_symme    :      0.01s CPU      0.01s WALL (     101 calls)

     PWSCF        :   1m15.27s CPU   1m16.65s WALL


   This run was terminated on:  15:44: 3  28Sep2020            

=------------------------------------------------------------------------------=
   JOB DONE.
=------------------------------------------------------------------------------=
