
     Program BANDS v.6.5 starts on  4Jun2020 at 17:44:36 

     This program is part of the open-source Quantum ESPRESSO suite
     for quantum simulation of materials; please cite
         "P. Giannozzi et al., J. Phys.:Condens. Matter 21 395502 (2009);
         "P. Giannozzi et al., J. Phys.:Condens. Matter 29 465901 (2017);
          URL http://www.quantum-espresso.org", 
     in publications or presentations arising from this work. More details at
     http://www.quantum-espresso.org/quote

     Serial version

     Reading xml data from directory:

     ./Gr.save/

     Program BANDS v.6.5 starts on  4Jun2020 at 17:44:36 

     This program is part of the open-source Quantum ESPRESSO suite
     for quantum simulation of materials; please cite
         "P. Giannozzi et al., J. Phys.:Condens. Matter 21 395502 (2009);
         "P. Giannozzi et al., J. Phys.:Condens. Matter 29 465901 (2017);
          URL http://www.quantum-espresso.org", 
     in publications or presentations arising from this work. More details at
     http://www.quantum-espresso.org/quote

     Serial version

     Reading xml data from directory:

     ./Gr.save/

     Program BANDS v.6.5 starts on  4Jun2020 at 17:44:36 

     This program is part of the open-source Quantum ESPRESSO suite
     for quantum simulation of materials; please cite
         "P. Giannozzi et al., J. Phys.:Condens. Matter 21 395502 (2009);
         "P. Giannozzi et al., J. Phys.:Condens. Matter 29 465901 (2017);
          URL http://www.quantum-espresso.org", 
     in publications or presentations arising from this work. More details at
     http://www.quantum-espresso.org/quote

     Serial version

     Reading xml data from directory:

     ./Gr.save/

     Program BANDS v.6.5 starts on  4Jun2020 at 17:44:36 

     This program is part of the open-source Quantum ESPRESSO suite
     for quantum simulation of materials; please cite
         "P. Giannozzi et al., J. Phys.:Condens. Matter 21 395502 (2009);
         "P. Giannozzi et al., J. Phys.:Condens. Matter 29 465901 (2017);
          URL http://www.quantum-espresso.org", 
     in publications or presentations arising from this work. More details at
     http://www.quantum-espresso.org/quote

     Serial version

     Reading xml data from directory:

     ./Gr.save/

     Program BANDS v.6.5 starts on  4Jun2020 at 17:44:36 

     This program is part of the open-source Quantum ESPRESSO suite
     for quantum simulation of materials; please cite
         "P. Giannozzi et al., J. Phys.:Condens. Matter 21 395502 (2009);
         "P. Giannozzi et al., J. Phys.:Condens. Matter 29 465901 (2017);
          URL http://www.quantum-espresso.org", 
     in publications or presentations arising from this work. More details at
     http://www.quantum-espresso.org/quote

     Serial version

     Reading xml data from directory:

     ./Gr.save/

     Program BANDS v.6.5 starts on  4Jun2020 at 17:44:36 

     This program is part of the open-source Quantum ESPRESSO suite
     for quantum simulation of materials; please cite
         "P. Giannozzi et al., J. Phys.:Condens. Matter 21 395502 (2009);
         "P. Giannozzi et al., J. Phys.:Condens. Matter 29 465901 (2017);
          URL http://www.quantum-espresso.org", 
     in publications or presentations arising from this work. More details at
     http://www.quantum-espresso.org/quote

     Serial version

     Reading xml data from directory:

     ./Gr.save/

     Program BANDS v.6.5 starts on  4Jun2020 at 17:44:36 

     This program is part of the open-source Quantum ESPRESSO suite
     for quantum simulation of materials; please cite
         "P. Giannozzi et al., J. Phys.:Condens. Matter 21 395502 (2009);
         "P. Giannozzi et al., J. Phys.:Condens. Matter 29 465901 (2017);
          URL http://www.quantum-espresso.org", 
     in publications or presentations arising from this work. More details at
     http://www.quantum-espresso.org/quote

     Serial version

     Program BANDS v.6.5 starts on  4Jun2020 at 17:44:36 

     This program is part of the open-source Quantum ESPRESSO suite
     for quantum simulation of materials; please cite
         "P. Giannozzi et al., J. Phys.:Condens. Matter 21 395502 (2009);
         "P. Giannozzi et al., J. Phys.:Condens. Matter 29 465901 (2017);
          URL http://www.quantum-espresso.org", 
     in publications or presentations arising from this work. More details at
     http://www.quantum-espresso.org/quote

     Serial version

     Reading xml data from directory:

     ./Gr.save/

     Reading xml data from directory:

     ./Gr.save/

     Program BANDS v.6.5 starts on  4Jun2020 at 17:44:36 

     This program is part of the open-source Quantum ESPRESSO suite
     for quantum simulation of materials; please cite
         "P. Giannozzi et al., J. Phys.:Condens. Matter 21 395502 (2009);
         "P. Giannozzi et al., J. Phys.:Condens. Matter 29 465901 (2017);
          URL http://www.quantum-espresso.org", 
     in publications or presentations arising from this work. More details at
     http://www.quantum-espresso.org/quote

     Serial version

     Program BANDS v.6.5 starts on  4Jun2020 at 17:44:36 

     This program is part of the open-source Quantum ESPRESSO suite
     for quantum simulation of materials; please cite
         "P. Giannozzi et al., J. Phys.:Condens. Matter 21 395502 (2009);
         "P. Giannozzi et al., J. Phys.:Condens. Matter 29 465901 (2017);
          URL http://www.quantum-espresso.org", 
     in publications or presentations arising from this work. More details at
     http://www.quantum-espresso.org/quote

     Serial version

     Reading xml data from directory:

     ./Gr.save/

     Reading xml data from directory:

     ./Gr.save/
     Message from routine read_upf::
     Pseudo file C.pbe-n-kjpaw_psl.0.1.UPF has been fixed on the fly.
To avoid this message in the future, permanently fix 
 your pseudo files following these instructions: 
https://gitlab.com/QEF/q-e/blob/master/upftools/how_to_fix_upf.md

 %%%%%%%%%%%%%%%%%%%%%%%%%%%%%%%%%%%%%%%%%%%%%%%%%%%%%%%%%%%%%%%%%%%%%%%%%%%%%%
     Error in routine readpp (1):
     file ./Gr.save/C.pbe-n-kjpaw_psl.0.1.UPF not readable
 %%%%%%%%%%%%%%%%%%%%%%%%%%%%%%%%%%%%%%%%%%%%%%%%%%%%%%%%%%%%%%%%%%%%%%%%%%%%%%

     stopping ...
     Message from routine read_upf::
     Pseudo file C.pbe-n-kjpaw_psl.0.1.UPF has been fixed on the fly.
To avoid this message in the future, permanently fix 
 your pseudo files following these instructions: 
https://gitlab.com/QEF/q-e/blob/master/upftools/how_to_fix_upf.md

 %%%%%%%%%%%%%%%%%%%%%%%%%%%%%%%%%%%%%%%%%%%%%%%%%%%%%%%%%%%%%%%%%%%%%%%%%%%%%%
     Error in routine readpp (1):
     file ./Gr.save/C.pbe-n-kjpaw_psl.0.1.UPF not readable
 %%%%%%%%%%%%%%%%%%%%%%%%%%%%%%%%%%%%%%%%%%%%%%%%%%%%%%%%%%%%%%%%%%%%%%%%%%%%%%

     stopping ...
     Message from routine read_upf::
     Pseudo file C.pbe-n-kjpaw_psl.0.1.UPF has been fixed on the fly.
To avoid this message in the future, permanently fix 
 your pseudo files following these instructions: 
https://gitlab.com/QEF/q-e/blob/master/upftools/how_to_fix_upf.md

 %%%%%%%%%%%%%%%%%%%%%%%%%%%%%%%%%%%%%%%%%%%%%%%%%%%%%%%%%%%%%%%%%%%%%%%%%%%%%%
     Error in routine readpp (1):
     file ./Gr.save/C.pbe-n-kjpaw_psl.0.1.UPF not readable
 %%%%%%%%%%%%%%%%%%%%%%%%%%%%%%%%%%%%%%%%%%%%%%%%%%%%%%%%%%%%%%%%%%%%%%%%%%%%%%

     stopping ...
     Message from routine read_upf::
     Pseudo file C.pbe-n-kjpaw_psl.0.1.UPF has been fixed on the fly.
To avoid this message in the future, permanently fix 
 your pseudo files following these instructions: 
https://gitlab.com/QEF/q-e/blob/master/upftools/how_to_fix_upf.md
     Message from routine read_upf::
     Pseudo file C.pbe-n-kjpaw_psl.0.1.UPF has been fixed on the fly.
To avoid this message in the future, permanently fix 
 your pseudo files following these instructions: 
https://gitlab.com/QEF/q-e/blob/master/upftools/how_to_fix_upf.md


 %%%%%%%%%%%%%%%%%%%%%%%%%%%%%%%%%%%%%%%%%%%%%%%%%%%%%%%%%%%%%%%%%%%%%%%%%%%%%%
     Error in routine readpp (1):
     file ./Gr.save/C.pbe-n-kjpaw_psl.0.1.UPF not readable
 %%%%%%%%%%%%%%%%%%%%%%%%%%%%%%%%%%%%%%%%%%%%%%%%%%%%%%%%%%%%%%%%%%%%%%%%%%%%%%

     stopping ...
 %%%%%%%%%%%%%%%%%%%%%%%%%%%%%%%%%%%%%%%%%%%%%%%%%%%%%%%%%%%%%%%%%%%%%%%%%%%%%%
     Error in routine readpp (1):
     file ./Gr.save/C.pbe-n-kjpaw_psl.0.1.UPF not readable
 %%%%%%%%%%%%%%%%%%%%%%%%%%%%%%%%%%%%%%%%%%%%%%%%%%%%%%%%%%%%%%%%%%%%%%%%%%%%%%

     stopping ...
     Message from routine read_upf::
     Pseudo file C.pbe-n-kjpaw_psl.0.1.UPF has been fixed on the fly.
To avoid this message in the future, permanently fix 
 your pseudo files following these instructions: 
https://gitlab.com/QEF/q-e/blob/master/upftools/how_to_fix_upf.md

     IMPORTANT: XC functional enforced from input :
     Exchange-correlation= PBE
                           (   1   4   3   4   0   0   0)
     Any further DFT definition will be discarded
     Please, verify this is what you really want

               file C.pbe-n-kjpaw_psl.0.1.UPF: wavefunction(s)  2P renormalized

     G-vector sticks info
     --------------------
     sticks:   dense  smooth     PW     G-vecs:    dense   smooth      PW
     Sum         313     313     97                18051    18051    3157


     Check: negative core charge=   -0.000003

     negative rho (up, down):  2.717E-05 0.000E+00
     Reading collected, re-writing distributed wavefunctions
     high-symmetry point:  0.0000 0.0000 0.0000   x coordinate   0.0000
     high-symmetry point:  0.6667 0.0000 0.0000   x coordinate   0.6667
     high-symmetry point:  0.5000 0.2887 0.0000   x coordinate   1.0000
     high-symmetry point:  0.0000 0.0000 0.0000   x coordinate   1.5774

     Plottable bands (eV) written to file Gr.bands.gnu
     Bands written to file Gr.bands

 **************************************************************************

                    xk=(   0.00000,   0.00000,   0.00000  )

     point group D_6h(6/mmm)
     there are 12 classes
     the character table:

       E     2C6   2C3   C2    3C2'  3C2'' i     2S3   2S6   s_h   3s_d  3s_v 
A_1g   1.00  1.00  1.00  1.00  1.00  1.00  1.00  1.00  1.00  1.00  1.00  1.00
A_2g   1.00  1.00  1.00  1.00 -1.00 -1.00  1.00  1.00  1.00  1.00 -1.00 -1.00
B_1g   1.00 -1.00  1.00 -1.00  1.00 -1.00  1.00 -1.00  1.00 -1.00  1.00 -1.00
B_2g   1.00 -1.00  1.00 -1.00 -1.00  1.00  1.00 -1.00  1.00 -1.00 -1.00  1.00
E_1g   2.00  1.00 -1.00 -2.00  0.00  0.00  2.00  1.00 -1.00 -2.00  0.00  0.00
E_2g   2.00 -1.00 -1.00  2.00  0.00  0.00  2.00 -1.00 -1.00  2.00  0.00  0.00
A_1u   1.00  1.00  1.00  1.00  1.00  1.00 -1.00 -1.00 -1.00 -1.00 -1.00 -1.00
A_2u   1.00  1.00  1.00  1.00 -1.00 -1.00 -1.00 -1.00 -1.00 -1.00  1.00  1.00
B_1u   1.00 -1.00  1.00 -1.00  1.00 -1.00 -1.00  1.00 -1.00  1.00 -1.00  1.00
B_2u   1.00 -1.00  1.00 -1.00 -1.00  1.00 -1.00  1.00 -1.00  1.00  1.00 -1.00
E_1u   2.00  1.00 -1.00 -2.00  0.00  0.00 -2.00 -1.00  1.00  2.00  0.00  0.00
E_2u   2.00 -1.00 -1.00  2.00  0.00  0.00 -2.00  1.00  1.00 -2.00  0.00  0.00

     the symmetry operations in each class and the name of the first element:

     E        1
                                                                 
     2C6      5    6
                                                                 
     2C3      7    8
                                                                 
     C2       2
                                                                 
     3C2'     4   12   11
                                                                 
     3C2''    3    9   10
                                                                 
     i       13
                                                                 
     2S3     17   18
                                                                 
     2S6     19   20
                                                                 
     s_h     14
                                                                 
     3s_d    16   24   23
                                                                 
     3s_v    15   21   22
                                                                 

     Band symmetry, D_6h(6/mmm) point group:

     e(  1 -  1) =    -19.99575  eV     1   --> A_1g           
     e(  2 -  2) =     -8.08310  eV     1   --> A_2u           
     e(  3 -  4) =     -3.48848  eV     2   --> E_2g           
     e(  5 -  5) =      2.57887  eV     1   --> A_1g           
     e(  6 -  6) =      4.21897  eV     1   --> A_2u           
     e(  7 -  7) =      5.23846  eV     1   --> A_1g           
     e(  8 -  8) =      7.90233  eV     1   -->   ?

 **************************************************************************

 **************************************************************************

                    xk=(   0.01667,   0.00000,   0.00000  )

     point group C_2v (mm2) 
     there are  4 classes
     the character table:

       E     C2    s_v   s_v' 
A_1    1.00  1.00  1.00  1.00
A_2    1.00  1.00 -1.00 -1.00
B_1    1.00 -1.00  1.00 -1.00
B_2    1.00 -1.00 -1.00  1.00

     the symmetry operations in each class and the name of the first element:

     E        1
                                                                 
     C2       2
                                                                 
     s_v      4
                                                                 
     s_v'     3
                                                                 

     Band symmetry, C_2v (mm2)  point group:

     e(  1 -  1) =    -19.99082  eV     1   --> A_1  D_1  S_1  
     e(  2 -  2) =     -8.07719  eV     1   --> B_1  D_3  S_3  
     e(  3 -  3) =     -3.50905  eV     1   --> B_2  D_4  S_4  
     e(  4 -  4) =     -3.49944  eV     1   --> A_1  D_1  S_1  
     e(  5 -  5) =      2.58561  eV     1   --> A_1  D_1  S_1  
     e(  6 -  6) =      4.22564  eV     1   --> B_1  D_3  S_3  
     e(  7 -  7) =      5.24507  eV     1   --> A_1  D_1  S_1  
     e(  8 -  8) =      7.90551  eV     1   --> A_1  D_1  S_1  

 **************************************************************************

 **************************************************************************

                    xk=(   0.03333,   0.00000,   0.00000  )

     Band symmetry, C_2v (mm2)  point group:

     e(  1 -  1) =    -19.97602  eV     1   --> A_1  D_1  S_1  
     e(  2 -  2) =     -8.05947  eV     1   --> B_1  D_3  S_3  
     e(  3 -  3) =     -3.57005  eV     1   --> B_2  D_4  S_4  
     e(  4 -  4) =     -3.53214  eV     1   --> A_1  D_1  S_1  
     e(  5 -  5) =      2.60582  eV     1   --> A_1  D_1  S_1  
     e(  6 -  6) =      4.24566  eV     1   --> B_1  D_3  S_3  
     e(  7 -  7) =      5.26492  eV     1   --> A_1  D_1  S_1  
     e(  8 -  8) =      7.91531  eV     1   --> A_1  D_1  S_1  

 **************************************************************************

 **************************************************************************

                    xk=(   0.05000,   0.00000,   0.00000  )

     Band symmetry, C_2v (mm2)  point group:

     e(  1 -  1) =    -19.95135  eV     1   --> A_1  D_1  S_1  
     e(  2 -  2) =     -8.02994  eV     1   --> B_1  D_3  S_3  
     e(  3 -  3) =     -3.66981  eV     1   --> B_2  D_4  S_4  
     e(  4 -  4) =     -3.58629  eV     1   --> A_1  D_1  S_1  
     e(  5 -  5) =      2.63952  eV     1   --> A_1  D_1  S_1  
     e(  6 -  6) =      4.27901  eV     1   --> B_1  D_3  S_3  
     e(  7 -  7) =      5.29801  eV     1   --> A_1  D_1  S_1  
     e(  8 -  8) =      7.93185  eV     1   --> A_1  D_1  S_1  

 **************************************************************************

 **************************************************************************

                    xk=(   0.06667,   0.00000,   0.00000  )

     Band symmetry, C_2v (mm2)  point group:

     e(  1 -  1) =    -19.91682  eV     1   --> A_1  D_1  S_1  
     e(  2 -  2) =     -7.98862  eV     1   --> B_1  D_3  S_3  
     e(  3 -  3) =     -3.80561  eV     1   --> B_2  D_4  S_4  
     e(  4 -  4) =     -3.66147  eV     1   --> A_1  D_1  S_1  
     e(  5 -  5) =      2.68670  eV     1   --> A_1  D_1  S_1  
     e(  6 -  6) =      4.32570  eV     1   --> B_1  D_3  S_3  
     e(  7 -  7) =      5.34436  eV     1   --> A_1  D_1  S_1  
     e(  8 -  8) =      7.95550  eV     1   --> A_1  D_1  S_1  

 **************************************************************************

 **************************************************************************

                    xk=(   0.08333,   0.00000,   0.00000  )

     Band symmetry, C_2v (mm2)  point group:

     e(  1 -  1) =    -19.87246  eV     1   --> A_1  D_1  S_1  
     e(  2 -  2) =     -7.93556  eV     1   --> B_1  D_3  S_3  
     e(  3 -  3) =     -3.97417  eV     1   --> B_2  D_4  S_4  
     e(  4 -  4) =     -3.75706  eV     1   --> A_1  D_1  S_1  
     e(  5 -  5) =      2.74736  eV     1   --> A_1  D_1  S_1  
     e(  6 -  6) =      4.38570  eV     1   --> B_1  D_3  S_3  
     e(  7 -  7) =      5.40395  eV     1   --> A_1  D_1  S_1  
     e(  8 -  8) =      7.98660  eV     1   --> A_1  D_1  S_1  

 **************************************************************************

 **************************************************************************

                    xk=(   0.10000,   0.00000,   0.00000  )

     Band symmetry, C_2v (mm2)  point group:

     e(  1 -  1) =    -19.81827  eV     1   --> A_1  D_1  S_1  
     e(  2 -  2) =     -7.87080  eV     1   --> B_1  D_3  S_3  
     e(  3 -  3) =     -4.17160  eV     1   --> B_2  D_4  S_4  
     e(  4 -  4) =     -3.87221  eV     1   --> A_1  D_1  S_1  
     e(  5 -  5) =      2.82151  eV     1   --> A_1  D_1  S_1  
     e(  6 -  6) =      4.45899  eV     1   --> B_1  D_3  S_3  
     e(  7 -  7) =      5.47682  eV     1   --> A_1  D_1  S_1  
     e(  8 -  8) =      8.02565  eV     1   --> A_1  D_1  S_1  

 **************************************************************************

 **************************************************************************

                    xk=(   0.11667,   0.00000,   0.00000  )

     Band symmetry, C_2v (mm2)  point group:

     e(  1 -  1) =    -19.75426  eV     1   --> A_1  D_1  S_1  
     e(  2 -  2) =     -7.79437  eV     1   --> B_1  D_3  S_3  
     e(  3 -  3) =     -4.39406  eV     1   --> B_2  D_4  S_4  
     e(  4 -  4) =     -4.00597  eV     1   --> A_1  D_1  S_1  
     e(  5 -  5) =      2.90915  eV     1   --> A_1  D_1  S_1  
     e(  6 -  6) =      4.54557  eV     1   --> B_1  D_3  S_3  
     e(  7 -  7) =      5.56298  eV     1   --> A_1  D_1  S_1  
     e(  8 -  8) =      8.07320  eV     1   --> A_1  D_1  S_1  

 **************************************************************************

 **************************************************************************

                    xk=(   0.13333,   0.00000,   0.00000  )

     Band symmetry, C_2v (mm2)  point group:

     e(  1 -  1) =    -19.68046  eV     1   --> A_1  D_1  S_1  
     e(  2 -  2) =     -7.70634  eV     1   --> B_1  D_3  S_3  
     e(  3 -  3) =     -4.63780  eV     1   --> B_2  D_4  S_4  
     e(  4 -  4) =     -4.15732  eV     1   --> A_1  D_1  S_1  
     e(  5 -  5) =      3.01028  eV     1   --> A_1  D_1  S_1  
     e(  6 -  6) =      4.64538  eV     1   --> B_1  D_3  S_3  
     e(  7 -  7) =      5.66245  eV     1   --> A_1  D_1  S_1  
     e(  8 -  8) =      8.12970  eV     1   --> A_1  D_1  S_1  

 **************************************************************************

 **************************************************************************

                    xk=(   0.15000,   0.00000,   0.00000  )

     Band symmetry, C_2v (mm2)  point group:

     e(  1 -  1) =    -19.59690  eV     1   --> A_1  D_1  S_1  
     e(  2 -  2) =     -7.60680  eV     1   --> B_1  D_3  S_3  
     e(  3 -  3) =     -4.89914  eV     1   --> B_2  D_4  S_4  
     e(  4 -  4) =     -4.32499  eV     1   --> A_1  D_1  S_1  
     e(  5 -  5) =      3.12489  eV     1   --> A_1  D_1  S_1  
     e(  6 -  6) =      4.75841  eV     1   --> B_1  D_3  S_3  
     e(  7 -  7) =      5.77522  eV     1   --> A_1  D_1  S_1  
     e(  8 -  8) =      8.19577  eV     1   --> A_1  D_1  S_1  

 **************************************************************************

 **************************************************************************

                    xk=(   0.16667,   0.00000,   0.00000  )

     Band symmetry, C_2v (mm2)  point group:

     e(  1 -  1) =    -19.50360  eV     1   --> A_1  D_1  S_1  
     e(  2 -  2) =     -7.49577  eV     1   --> B_1  D_3  S_3  
     e(  3 -  3) =     -5.17475  eV     1   --> B_2  D_4  S_4  
     e(  4 -  4) =     -4.50772  eV     1   --> A_1  D_1  S_1  
     e(  5 -  5) =      3.25298  eV     1   --> A_1  D_1  S_1  
     e(  6 -  6) =      4.88462  eV     1   --> B_1  D_3  S_3  
     e(  7 -  7) =      5.90132  eV     1   --> A_1  D_1  S_1  
     e(  8 -  8) =      8.27182  eV     1   --> A_1  D_1  S_1  

 **************************************************************************

 **************************************************************************

                    xk=(   0.18333,   0.00000,   0.00000  )

     Band symmetry, C_2v (mm2)  point group:

     e(  1 -  1) =    -19.40060  eV     1   --> A_1  D_1  S_1  
     e(  2 -  2) =     -7.37347  eV     1   --> B_1  D_3  S_3  
     e(  3 -  3) =     -5.46184  eV     1   --> B_2  D_4  S_4  
     e(  4 -  4) =     -4.70432  eV     1   --> A_1  D_1  S_1  
     e(  5 -  5) =      3.39455  eV     1   --> A_1  D_1  S_1  
     e(  6 -  6) =      5.02394  eV     1   --> B_1  D_3  S_3  
     e(  7 -  7) =      6.04073  eV     1   --> A_1  D_1  S_1  
     e(  8 -  8) =      8.35805  eV     1   --> A_1  D_1  S_1  

 **************************************************************************

 **************************************************************************

                    xk=(   0.20000,   0.00000,   0.00000  )

     Band symmetry, C_2v (mm2)  point group:

     e(  1 -  1) =    -19.28793  eV     1   --> A_1  D_1  S_1  
     e(  2 -  2) =     -7.23990  eV     1   --> B_1  D_3  S_3  
     e(  3 -  3) =     -5.75767  eV     1   --> B_2  D_4  S_4  
     e(  4 -  4) =     -4.91336  eV     1   --> A_1  D_1  S_1  
     e(  5 -  5) =      3.54959  eV     1   --> A_1  D_1  S_1  
     e(  6 -  6) =      5.17632  eV     1   --> B_1  D_3  S_3  
     e(  7 -  7) =      6.19347  eV     1   --> A_1  D_1  S_1  
     e(  8 -  8) =      8.45495  eV     1   --> A_1  D_1  S_1  

 **************************************************************************

 **************************************************************************

                    xk=(   0.21667,   0.00000,   0.00000  )

     Band symmetry, C_2v (mm2)  point group:

     e(  1 -  1) =    -19.16564  eV     1   --> A_1  D_1  S_1  
     e(  2 -  2) =     -7.09521  eV     1   --> B_1  D_3  S_3  
     e(  3 -  3) =     -6.05993  eV     1   --> B_2  D_4  S_4  
     e(  4 -  4) =     -5.13349  eV     1   --> A_1  D_1  S_1  
     e(  5 -  5) =      3.71808  eV     1   --> A_1  D_1  S_1  
     e(  6 -  6) =      5.34170  eV     1   --> B_1  D_3  S_3  
     e(  7 -  7) =      6.35952  eV     1   --> A_1  D_1  S_1  
     e(  8 -  8) =      8.50657  eV     1   --> A_2  D_2  S_2  

 **************************************************************************

 **************************************************************************

                    xk=(   0.23333,   0.00000,   0.00000  )

     Band symmetry, C_2v (mm2)  point group:

     e(  1 -  1) =    -19.03377  eV     1   --> A_1  D_1  S_1  
     e(  2 -  2) =     -6.93956  eV     1   --> B_1  D_3  S_3  
     e(  3 -  3) =     -6.36663  eV     1   --> B_2  D_4  S_4  
     e(  4 -  4) =     -5.36336  eV     1   --> A_1  D_1  S_1  
     e(  5 -  5) =      3.90002  eV     1   --> A_1  D_1  S_1  
     e(  6 -  6) =      5.51997  eV     1   --> B_1  D_3  S_3  
     e(  7 -  7) =      6.53887  eV     1   --> A_1  D_1  S_1  
     e(  8 -  8) =      8.16429  eV     1   --> A_2  D_2  S_2  

 **************************************************************************

 **************************************************************************

                    xk=(   0.25000,   0.00000,   0.00000  )

     Band symmetry, C_2v (mm2)  point group:

     e(  1 -  1) =    -18.89239  eV     1   --> A_1  D_1  S_1  
     e(  2 -  2) =     -6.77310  eV     1   --> B_1  D_3  S_3  
     e(  3 -  3) =     -6.67609  eV     1   --> B_2  D_4  S_4  
     e(  4 -  4) =     -5.60161  eV     1   --> A_1  D_1  S_1  
     e(  5 -  5) =      4.09539  eV     1   --> A_1  D_1  S_1  
     e(  6 -  6) =      5.71103  eV     1   --> B_1  D_3  S_3  
     e(  7 -  7) =      6.73150  eV     1   --> A_1  D_1  S_1  
     e(  8 -  8) =      7.81220  eV     1   --> A_2  D_2  S_2  

 **************************************************************************

 **************************************************************************

                    xk=(   0.26667,   0.00000,   0.00000  )

     Band symmetry, C_2v (mm2)  point group:

     e(  1 -  1) =    -18.74155  eV     1   --> A_1  D_1  S_1  
     e(  2 -  2) =     -6.98679  eV     1   --> B_2  D_4  S_4  
     e(  3 -  3) =     -6.59603  eV     1   --> B_1  D_3  S_3  
     e(  4 -  4) =     -5.84699  eV     1   --> A_1  D_1  S_1  
     e(  5 -  5) =      4.30416  eV     1   --> A_1  D_1  S_1  
     e(  6 -  6) =      5.91476  eV     1   --> B_1  D_3  S_3  
     e(  7 -  7) =      6.93739  eV     1   --> A_1  D_1  S_1  
     e(  8 -  8) =      7.45231  eV     1   --> A_2  D_2  S_2  

 **************************************************************************

 **************************************************************************

                    xk=(   0.28333,   0.00000,   0.00000  )

     Band symmetry, C_2v (mm2)  point group:

     e(  1 -  1) =    -18.58133  eV     1   --> A_1  D_1  S_1  
     e(  2 -  2) =     -7.29748  eV     1   --> B_2  D_4  S_4  
     e(  3 -  3) =     -6.40853  eV     1   --> B_1  D_3  S_3  
     e(  4 -  4) =     -6.09824  eV     1   --> A_1  D_1  S_1  
     e(  5 -  5) =      4.52631  eV     1   --> A_1  D_1  S_1  
     e(  6 -  6) =      6.13098  eV     1   --> B_1  D_3  S_3  
     e(  7 -  7) =      7.08644  eV     1   --> A_2  D_2  S_2  
     e(  8 -  8) =      7.15648  eV     1   --> A_1  D_1  S_1  

 **************************************************************************

 **************************************************************************

                    xk=(   0.30000,   0.00000,   0.00000  )

     Band symmetry, C_2v (mm2)  point group:

     e(  1 -  1) =    -18.41180  eV     1   --> A_1  D_1  S_1  
     e(  2 -  2) =     -7.60702  eV     1   --> B_2  D_4  S_4  
     e(  3 -  3) =     -6.35414  eV     1   --> A_1  D_1  S_1  
     e(  4 -  4) =     -6.21085  eV     1   --> B_1  D_3  S_3  
     e(  5 -  5) =      4.76181  eV     1   --> A_1  D_1  S_1  
     e(  6 -  6) =      6.35950  eV     1   --> B_1  D_3  S_3  
     e(  7 -  7) =      6.71629  eV     1   --> A_2  D_2  S_2  
     e(  8 -  8) =      7.38874  eV     1   --> A_1  D_1  S_1  

 **************************************************************************

 **************************************************************************

                    xk=(   0.31667,   0.00000,   0.00000  )

     Band symmetry, C_2v (mm2)  point group:

     e(  1 -  1) =    -18.23306  eV     1   --> A_1  D_1  S_1  
     e(  2 -  2) =     -7.91446  eV     1   --> B_2  D_4  S_4  
     e(  3 -  3) =     -6.61359  eV     1   --> A_1  D_1  S_1  
     e(  4 -  4) =     -6.00327  eV     1   --> B_1  D_3  S_3  
     e(  5 -  5) =      5.01062  eV     1   --> A_1  D_1  S_1  
     e(  6 -  6) =      6.34351  eV     1   --> A_2  D_2  S_2  
     e(  7 -  7) =      6.60006  eV     1   --> B_1  D_3  S_3  
     e(  8 -  8) =      7.63410  eV     1   --> A_1  D_1  S_1  

 **************************************************************************

 **************************************************************************

                    xk=(   0.33333,   0.00000,   0.00000  )

     Band symmetry, C_2v (mm2)  point group:

     e(  1 -  1) =    -18.04521  eV     1   --> A_1  D_1  S_1  
     e(  2 -  2) =     -8.21904  eV     1   --> B_2  D_4  S_4  
     e(  3 -  3) =     -6.87544  eV     1   --> A_1  D_1  S_1  
     e(  4 -  4) =     -5.78605  eV     1   --> B_1  D_3  S_3  
     e(  5 -  5) =      5.27270  eV     1   --> A_1  D_1  S_1  
     e(  6 -  6) =      5.96941  eV     1   --> A_2  D_2  S_2  
     e(  7 -  7) =      6.85233  eV     1   --> B_1  D_3  S_3  
     e(  8 -  8) =      7.89249  eV     1   --> A_1  D_1  S_1  

 **************************************************************************

 **************************************************************************

                    xk=(   0.35000,   0.00000,   0.00000  )

     Band symmetry, C_2v (mm2)  point group:

     e(  1 -  1) =    -17.84836  eV     1   --> A_1  D_1  S_1  
     e(  2 -  2) =     -8.51998  eV     1   --> B_2  D_4  S_4  
     e(  3 -  3) =     -7.13866  eV     1   --> A_1  D_1  S_1  
     e(  4 -  4) =     -5.55952  eV     1   --> B_1  D_3  S_3  
     e(  5 -  5) =      5.54800  eV     1   --> A_1  D_1  S_1  
     e(  6 -  6) =      5.59537  eV     1   --> A_2  D_2  S_2  
     e(  7 -  7) =      7.11590  eV     1   --> B_1  D_3  S_3  
     e(  8 -  8) =      8.16382  eV     1   --> A_1  D_1  S_1  

 **************************************************************************

 **************************************************************************

                    xk=(   0.36667,   0.00000,   0.00000  )

     Band symmetry, C_2v (mm2)  point group:

     e(  1 -  1) =    -17.64265  eV     1   --> A_1  D_1  S_1  
     e(  2 -  2) =     -8.81669  eV     1   --> B_2  D_4  S_4  
     e(  3 -  3) =     -7.40231  eV     1   --> A_1  D_1  S_1  
     e(  4 -  4) =     -5.32405  eV     1   --> B_1  D_3  S_3  
     e(  5 -  5) =      5.22257  eV     1   --> A_2  D_2  S_2  
     e(  6 -  6) =      5.83645  eV     1   --> A_1  D_1  S_1  
     e(  7 -  7) =      7.39020  eV     1   --> B_1  D_3  S_3  
     e(  8 -  8) =      8.44795  eV     1   --> A_1  D_1  S_1  

 **************************************************************************

 **************************************************************************

                    xk=(   0.38333,   0.00000,   0.00000  )

     Band symmetry, C_2v (mm2)  point group:

     e(  1 -  1) =    -17.42823  eV     1   --> A_1  D_1  S_1  
     e(  2 -  2) =     -9.10861  eV     1   --> B_2  D_4  S_4  
     e(  3 -  3) =     -7.66542  eV     1   --> A_1  D_1  S_1  
     e(  4 -  4) =     -5.08007  eV     1   --> B_1  D_3  S_3  
     e(  5 -  5) =      4.85214  eV     1   --> A_2  D_2  S_2  
     e(  6 -  6) =      6.13799  eV     1   --> A_1  D_1  S_1  
     e(  7 -  7) =      7.67448  eV     1   --> B_1  D_3  S_3  
     e(  8 -  8) =      8.74474  eV     1   --> A_1  D_1  S_1  

 **************************************************************************

 **************************************************************************

                    xk=(   0.40000,   0.00000,   0.00000  )

     Band symmetry, C_2v (mm2)  point group:

     e(  1 -  1) =    -17.20527  eV     1   --> A_1  D_1  S_1  
     e(  2 -  2) =     -9.39528  eV     1   --> B_2  D_4  S_4  
     e(  3 -  3) =     -7.92712  eV     1   --> A_1  D_1  S_1  
     e(  4 -  4) =     -4.82807  eV     1   --> B_1  D_3  S_3  
     e(  5 -  5) =      4.48499  eV     1   --> A_2  D_2  S_2  
     e(  6 -  6) =      6.45251  eV     1   --> A_1  D_1  S_1  
     e(  7 -  7) =      7.96771  eV     1   --> B_1  D_3  S_3  
     e(  8 -  8) =      9.05398  eV     1   --> A_1  D_1  S_1  

 **************************************************************************

 **************************************************************************

                    xk=(   0.41667,   0.00000,   0.00000  )

     Band symmetry, C_2v (mm2)  point group:

     e(  1 -  1) =    -16.97399  eV     1   --> A_1  D_1  S_1  
     e(  2 -  2) =     -9.67635  eV     1   --> B_2  D_4  S_4  
     e(  3 -  3) =     -8.18664  eV     1   --> A_1  D_1  S_1  
     e(  4 -  4) =     -4.56857  eV     1   --> B_1  D_3  S_3  
     e(  5 -  5) =      4.12195  eV     1   --> A_2  D_2  S_2  
     e(  6 -  6) =      6.77991  eV     1   --> A_1  D_1  S_1  
     e(  7 -  7) =      8.26843  eV     1   --> B_1  D_3  S_3  
     e(  8 -  8) =      9.37540  eV     1   --> A_1  D_1  S_1  

 **************************************************************************

 **************************************************************************

                    xk=(   0.43333,   0.00000,   0.00000  )

     Band symmetry, C_2v (mm2)  point group:

     e(  1 -  1) =    -16.73462  eV     1   --> A_1  D_1  S_1  
     e(  2 -  2) =     -9.95143  eV     1   --> B_2  D_4  S_4  
     e(  3 -  3) =     -8.44314  eV     1   --> A_1  D_1  S_1  
     e(  4 -  4) =     -4.30218  eV     1   --> B_1  D_3  S_3  
     e(  5 -  5) =      3.76385  eV     1   --> A_2  D_2  S_2  
     e(  6 -  6) =      7.12004  eV     1   --> A_1  D_1  S_1  
     e(  7 -  7) =      8.57454  eV     1   --> B_1  D_3  S_3  
     e(  8 -  8) =      9.70863  eV     1   --> A_1  D_1  S_1  

 **************************************************************************

 **************************************************************************

                    xk=(   0.45000,   0.00000,   0.00000  )

     Band symmetry, C_2v (mm2)  point group:

     e(  1 -  1) =    -16.48745  eV     1   --> A_1  D_1  S_1  
     e(  2 -  2) =    -10.22022  eV     1   --> B_2  D_4  S_4  
     e(  3 -  3) =     -8.69581  eV     1   --> A_1  D_1  S_1  
     e(  4 -  4) =     -4.02960  eV     1   --> B_1  D_3  S_3  
     e(  5 -  5) =      3.41140  eV     1   --> A_2  D_2  S_2  
     e(  6 -  6) =      7.47272  eV     1   --> A_1  D_1  S_1  
     e(  7 -  7) =      8.88292  eV     1   --> B_1  D_3  S_3  
     e(  8 -  8) =     10.05313  eV     1   --> A_1  D_1  S_1  

 **************************************************************************

 **************************************************************************

                    xk=(   0.46667,   0.00000,   0.00000  )

     Band symmetry, C_2v (mm2)  point group:

     e(  1 -  1) =    -16.23284  eV     1   --> A_1  D_1  S_1  
     e(  2 -  2) =    -10.48242  eV     1   --> B_2  D_4  S_4  
     e(  3 -  3) =     -8.94390  eV     1   --> A_1  D_1  S_1  
     e(  4 -  4) =     -3.75158  eV     1   --> B_1  D_3  S_3  
     e(  5 -  5) =      3.06529  eV     1   --> A_2  D_2  S_2  
     e(  6 -  6) =      7.83770  eV     1   --> A_1  D_1  S_1  
     e(  7 -  7) =      9.18884  eV     1   --> B_1  D_3  S_3  
     e(  8 -  8) =     10.40810  eV     1   --> A_1  D_1  S_1  

 **************************************************************************

 **************************************************************************

                    xk=(   0.48333,   0.00000,   0.00000  )

     Band symmetry, C_2v (mm2)  point group:

     e(  1 -  1) =    -15.97118  eV     1   --> A_1  D_1  S_1  
     e(  2 -  2) =    -10.73784  eV     1   --> B_2  D_4  S_4  
     e(  3 -  3) =     -9.18660  eV     1   --> A_1  D_1  S_1  
     e(  4 -  4) =     -3.46898  eV     1   --> B_1  D_3  S_3  
     e(  5 -  5) =      2.72604  eV     1   --> A_2  D_2  S_2  
     e(  6 -  6) =      8.21468  eV     1   --> A_1  D_1  S_1  
     e(  7 -  7) =      9.48501  eV     1   --> B_1  D_3  S_3  
     e(  8 -  8) =     10.77226  eV     1   --> A_1  D_1  S_1  

 **************************************************************************

 **************************************************************************

                    xk=(   0.50000,   0.00000,   0.00000  )

     Band symmetry, C_2v (mm2)  point group:

     e(  1 -  1) =    -15.70302  eV     1   --> A_1  D_1  S_1  
     e(  2 -  2) =    -10.98624  eV     1   --> B_2  D_4  S_4  
     e(  3 -  3) =     -9.42307  eV     1   --> A_1  D_1  S_1  
     e(  4 -  4) =     -3.18281  eV     1   --> B_1  D_3  S_3  
     e(  5 -  5) =      2.39419  eV     1   --> A_2  D_2  S_2  
     e(  6 -  6) =      8.60323  eV     1   --> A_1  D_1  S_1  
     e(  7 -  7) =      9.76032  eV     1   --> B_1  D_3  S_3  
     e(  8 -  8) =     11.14337  eV     1   --> A_1  D_1  S_1  

 **************************************************************************

 **************************************************************************

                    xk=(   0.51667,   0.00000,   0.00000  )

     Band symmetry, C_2v (mm2)  point group:

     e(  1 -  1) =    -15.42901  eV     1   --> A_1  D_1  S_1  
     e(  2 -  2) =    -11.22748  eV     1   --> B_2  D_4  S_4  
     e(  3 -  3) =     -9.65246  eV     1   --> A_1  D_1  S_1  
     e(  4 -  4) =     -2.89413  eV     1   --> B_1  D_3  S_3  
     e(  5 -  5) =      2.07022  eV     1   --> A_2  D_2  S_2  
     e(  6 -  6) =      9.00276  eV     1   --> A_1  D_1  S_1  
     e(  7 -  7) =      9.99897  eV     1   --> B_1  D_3  S_3  
     e(  8 -  8) =     11.51708  eV     1   --> A_1  D_1  S_1  

 **************************************************************************

 **************************************************************************

                    xk=(   0.53333,   0.00000,   0.00000  )

     Band symmetry, C_2v (mm2)  point group:

     e(  1 -  1) =    -15.15002  eV     1   --> A_1  D_1  S_1  
     e(  2 -  2) =    -11.46137  eV     1   --> B_2  D_4  S_4  
     e(  3 -  3) =     -9.87371  eV     1   --> A_1  D_1  S_1  
     e(  4 -  4) =     -2.60421  eV     1   --> B_1  D_3  S_3  
     e(  5 -  5) =      1.75454  eV     1   --> A_2  D_2  S_2  
     e(  6 -  6) =      9.41242  eV     1   --> A_1  D_1  S_1  
     e(  7 -  7) =     10.18232  eV     1   --> B_1  D_3  S_3  
     e(  8 -  8) =     11.88405  eV     1   --> A_1  D_1  S_1  

 **************************************************************************

 **************************************************************************

                    xk=(   0.55000,   0.00000,   0.00000  )

     Band symmetry, C_2v (mm2)  point group:

     e(  1 -  1) =    -14.86717  eV     1   --> A_1  D_1  S_1  
     e(  2 -  2) =    -11.68779  eV     1   --> B_2  D_4  S_4  
     e(  3 -  3) =    -10.08554  eV     1   --> A_1  D_1  S_1  
     e(  4 -  4) =     -2.31441  eV     1   --> B_1  D_3  S_3  
     e(  5 -  5) =      1.44756  eV     1   --> A_2  D_2  S_2  
     e(  6 -  6) =      9.83098  eV     1   --> A_1  D_1  S_1  
     e(  7 -  7) =     10.29670  eV     1   --> B_1  D_3  S_3  
     e(  8 -  8) =     12.22384  eV     1   --> A_1  D_1  S_1  

 **************************************************************************

 **************************************************************************

                    xk=(   0.56667,   0.00000,   0.00000  )

     Band symmetry, C_2v (mm2)  point group:

     e(  1 -  1) =    -14.58201  eV     1   --> A_1  D_1  S_1  
     e(  2 -  2) =    -11.90659  eV     1   --> B_2  D_4  S_4  
     e(  3 -  3) =    -10.28634  eV     1   --> A_1  D_1  S_1  
     e(  4 -  4) =     -2.02625  eV     1   --> B_1  D_3  S_3  
     e(  5 -  5) =      1.14965  eV     1   --> A_2  D_2  S_2  
     e(  6 -  6) =     10.25654  eV     1   --> A_1  D_1  S_1  
     e(  7 -  7) =     10.34347  eV     1   --> B_1  D_3  S_3  
     e(  8 -  8) =     12.50539  eV     1   --> A_1  D_1  S_1  

 **************************************************************************

 **************************************************************************

                    xk=(   0.58333,   0.00000,   0.00000  )

     Band symmetry, C_2v (mm2)  point group:

     e(  1 -  1) =    -14.29674  eV     1   --> A_1  D_1  S_1  
     e(  2 -  2) =    -12.11768  eV     1   --> B_2  D_4  S_4  
     e(  3 -  3) =    -10.47392  eV     1   --> A_1  D_1  S_1  
     e(  4 -  4) =     -1.74144  eV     1   --> B_1  D_3  S_3  
     e(  5 -  5) =      0.86106  eV     1   --> A_2  D_2  S_2  
     e(  6 -  6) =     10.33920  eV     1   --> B_1  D_3  S_3  
     e(  7 -  7) =     10.68604  eV     1   --> A_1  D_1  S_1  
     e(  8 -  8) =     12.58480  eV     1   --> B_2  D_4  S_4  

 **************************************************************************

 **************************************************************************

                    xk=(   0.60000,   0.00000,   0.00000  )

     Band symmetry, C_2v (mm2)  point group:

     e(  1 -  1) =    -14.01456  eV     1   --> A_1  D_1  S_1  
     e(  2 -  2) =    -12.32096  eV     1   --> B_2  D_4  S_4  
     e(  3 -  3) =    -10.64523  eV     1   --> A_1  D_1  S_1  
     e(  4 -  4) =     -1.46173  eV     1   --> B_1  D_3  S_3  
     e(  5 -  5) =      0.58212  eV     1   --> A_2  D_2  S_2  
     e(  6 -  6) =     10.30563  eV     1   --> B_1  D_3  S_3  
     e(  7 -  7) =     11.11428  eV     1   --> A_1  D_1  S_1  
     e(  8 -  8) =     12.60601  eV     1   --> B_2  D_4  S_4  

 **************************************************************************

 **************************************************************************

                    xk=(   0.61667,   0.00000,   0.00000  )

     Band symmetry, C_2v (mm2)  point group:

     e(  1 -  1) =    -13.74018  eV     1   --> A_1  D_1  S_1  
     e(  2 -  2) =    -12.51637  eV     1   --> B_2  D_4  S_4  
     e(  3 -  3) =    -10.79564  eV     1   --> A_1  D_1  S_1  
     e(  4 -  4) =     -1.18896  eV     1   --> B_1  D_3  S_3  
     e(  5 -  5) =      0.31304  eV     1   --> A_2  D_2  S_2  
     e(  6 -  6) =     10.26147  eV     1   --> B_1  D_3  S_3  
     e(  7 -  7) =     11.53178  eV     1   --> A_1  D_1  S_1  
     e(  8 -  8) =     12.60271  eV     1   --> B_2  D_4  S_4  

 **************************************************************************

 **************************************************************************

                    xk=(   0.63333,   0.00000,   0.00000  )

     Band symmetry, C_2v (mm2)  point group:

     e(  1 -  1) =    -13.48088  eV     1   --> A_1  D_1  S_1  
     e(  2 -  2) =    -12.70380  eV     1   --> B_2  D_4  S_4  
     e(  3 -  3) =    -10.91813  eV     1   --> A_1  D_1  S_1  
     e(  4 -  4) =     -0.92516  eV     1   --> B_1  D_3  S_3  
     e(  5 -  5) =      0.05413  eV     1   --> A_2  D_2  S_2  
     e(  6 -  6) =     10.22026  eV     1   --> B_1  D_3  S_3  
     e(  7 -  7) =     11.92004  eV     1   --> A_1  D_1  S_1  
     e(  8 -  8) =     12.57206  eV     1   --> B_2  D_4  S_4  

 **************************************************************************

 **************************************************************************

                    xk=(   0.65000,   0.00000,   0.00000  )

     Band symmetry, C_2v (mm2)  point group:

     e(  1 -  1) =    -13.24745  eV     1   --> A_1  D_1  S_1  
     e(  2 -  2) =    -12.88321  eV     1   --> B_2  D_4  S_4  
     e(  3 -  3) =    -11.00224  eV     1   --> A_1  D_1  S_1  
     e(  4 -  4) =     -0.67237  eV     1   --> B_1  D_3  S_3  
     e(  5 -  5) =     -0.19448  eV     1   --> A_2  D_2  S_2  
     e(  6 -  6) =     10.19119  eV     1   --> B_1  D_3  S_3  
     e(  7 -  7) =     12.24103  eV     1   --> A_1  D_1  S_1  
     e(  8 -  8) =     12.51315  eV     1   --> B_2  D_4  S_4  

 **************************************************************************

 **************************************************************************

                    xk=(   0.66667,   0.00000,   0.00000  )

     point group D_3h (-62m)
     there are  6 classes
     the character table:

       E     2C3   3C2   s_h   2S3   3s_v 
A'_1   1.00  1.00  1.00  1.00  1.00  1.00
A'_2   1.00  1.00 -1.00  1.00  1.00 -1.00
E'     2.00 -1.00  0.00  2.00 -1.00  0.00
A''1   1.00  1.00  1.00 -1.00 -1.00 -1.00
A''2   1.00  1.00 -1.00 -1.00 -1.00  1.00
E''    2.00 -1.00  0.00 -2.00  1.00  0.00

     the symmetry operations in each class and the name of the first element:

     E        1
                                                                 
     2C3      3    4
                                                                 
     3C2      2    5    6
                                                                 
     s_h      7
                                                                 
     2S3      9   10
                                                                 
     3s_v     8   12   11
                                                                 

     Band symmetry, D_3h (-62m) point group:

     e(  1 -  2) =    -13.05453  eV     2   --> E'             
     e(  3 -  3) =    -11.03379  eV     1   --> A'_1           
     e(  4 -  5) =     -0.43255  eV     2   --> E''            
     e(  6 -  6) =     10.18051  eV     1   --> A''2           
     e(  7 -  8) =     12.42768  eV     2   --> E'             

 **************************************************************************

 **************************************************************************

                    xk=(   0.65833,   0.01443,   0.00000  )

     point group C_2v (mm2) 
     there are  4 classes
     the character table:

       E     C2    s_v   s_v' 
A_1    1.00  1.00  1.00  1.00
A_2    1.00  1.00 -1.00 -1.00
B_1    1.00 -1.00  1.00 -1.00
B_2    1.00 -1.00 -1.00  1.00

     the symmetry operations in each class and the name of the first element:

     E        1
                                                                 
     C2       2
                                                                 
     s_v      4
                                                                 
     s_v'     3
                                                                 

     Band symmetry, C_2v (mm2)  point group:

     e(  1 -  1) =    -13.21771  eV     1   --> B_2  D_4  S_4  
     e(  2 -  2) =    -12.91750  eV     1   --> A_1  D_1  S_1  
     e(  3 -  3) =    -10.99786  eV     1   --> A_1  D_1  S_1  
     e(  4 -  4) =     -0.65987  eV     1   --> A_2  D_2  S_2  
     e(  5 -  5) =     -0.20747  eV     1   --> B_1  D_3  S_3  
     e(  6 -  6) =     10.19224  eV     1   --> B_1  D_3  S_3  
     e(  7 -  7) =     12.31966  eV     1   --> B_2  D_4  S_4  
     e(  8 -  8) =     12.44268  eV     1   --> A_1  D_1  S_1  

 **************************************************************************

 **************************************************************************

                    xk=(   0.65000,   0.02887,   0.00000  )

     Band symmetry, C_2v (mm2)  point group:

     e(  1 -  1) =    -13.37272  eV     1   --> B_2  D_4  S_4  
     e(  2 -  2) =    -12.84449  eV     1   --> A_1  D_1  S_1  
     e(  3 -  3) =    -10.88702  eV     1   --> A_1  D_1  S_1  
     e(  4 -  4) =     -0.87637  eV     1   --> A_2  D_2  S_2  
     e(  5 -  5) =      0.00121  eV     1   --> B_1  D_3  S_3  
     e(  6 -  6) =     10.22875  eV     1   --> B_1  D_3  S_3  
     e(  7 -  7) =     12.19446  eV     1   --> B_2  D_4  S_4  
     e(  8 -  8) =     12.34613  eV     1   --> A_1  D_1  S_1  

 **************************************************************************

 **************************************************************************

                    xk=(   0.64167,   0.04330,   0.00000  )

     Band symmetry, C_2v (mm2)  point group:

     e(  1 -  1) =    -13.51952  eV     1   --> B_2  D_4  S_4  
     e(  2 -  2) =    -12.83005  eV     1   --> A_1  D_1  S_1  
     e(  3 -  3) =    -10.70753  eV     1   --> A_1  D_1  S_1  
     e(  4 -  4) =     -1.08185  eV     1   --> A_2  D_2  S_2  
     e(  5 -  5) =      0.19226  eV     1   --> B_1  D_3  S_3  
     e(  6 -  6) =     10.29097  eV     1   --> B_1  D_3  S_3  
     e(  7 -  7) =     12.05779  eV     1   --> B_2  D_4  S_4  
     e(  8 -  8) =     12.19278  eV     1   --> A_1  D_1  S_1  

 **************************************************************************

 **************************************************************************

                    xk=(   0.63333,   0.05774,   0.00000  )

     Band symmetry, C_2v (mm2)  point group:

     e(  1 -  1) =    -13.65806  eV     1   --> B_2  D_4  S_4  
     e(  2 -  2) =    -12.85914  eV     1   --> A_1  D_1  S_1  
     e(  3 -  3) =    -10.47533  eV     1   --> A_1  D_1  S_1  
     e(  4 -  4) =     -1.27618  eV     1   --> A_2  D_2  S_2  
     e(  5 -  5) =      0.36481  eV     1   --> B_1  D_3  S_3  
     e(  6 -  6) =     10.37848  eV     1   --> B_1  D_3  S_3  
     e(  7 -  7) =     11.91481  eV     1   --> B_2  D_4  S_4  
     e(  8 -  8) =     11.98814  eV     1   --> A_1  D_1  S_1  

 **************************************************************************

 **************************************************************************

                    xk=(   0.62500,   0.07217,   0.00000  )

     Band symmetry, C_2v (mm2)  point group:

     e(  1 -  1) =    -13.78833  eV     1   --> B_2  D_4  S_4  
     e(  2 -  2) =    -12.91590  eV     1   --> A_1  D_1  S_1  
     e(  3 -  3) =    -10.20749  eV     1   --> A_1  D_1  S_1  
     e(  4 -  4) =     -1.45921  eV     1   --> A_2  D_2  S_2  
     e(  5 -  5) =      0.51845  eV     1   --> B_1  D_3  S_3  
     e(  6 -  6) =     10.48945  eV     1   --> B_1  D_3  S_3  
     e(  7 -  7) =     11.69486  eV     1   --> A_1  D_1  S_1  
     e(  8 -  8) =     11.76981  eV     1   --> B_2  D_4  S_4  

 **************************************************************************

 **************************************************************************

                    xk=(   0.61667,   0.08660,   0.00000  )

     Band symmetry, C_2v (mm2)  point group:

     e(  1 -  1) =    -13.91029  eV     1   --> B_2  D_4  S_4  
     e(  2 -  2) =    -12.98819  eV     1   --> A_1  D_1  S_1  
     e(  3 -  3) =     -9.91746  eV     1   --> A_1  D_1  S_1  
     e(  4 -  4) =     -1.63092  eV     1   --> A_2  D_2  S_2  
     e(  5 -  5) =      0.65328  eV     1   --> B_1  D_3  S_3  
     e(  6 -  6) =     10.62060  eV     1   --> B_1  D_3  S_3  
     e(  7 -  7) =     11.30760  eV     1   --> A_1  D_1  S_1  
     e(  8 -  8) =     11.62619  eV     1   --> B_2  D_4  S_4  

 **************************************************************************

 **************************************************************************

                    xk=(   0.60833,   0.10104,   0.00000  )

     Band symmetry, C_2v (mm2)  point group:

     e(  1 -  1) =    -14.02392  eV     1   --> B_2  D_4  S_4  
     e(  2 -  2) =    -13.06793  eV     1   --> A_1  D_1  S_1  
     e(  3 -  3) =     -9.61489  eV     1   --> A_1  D_1  S_1  
     e(  4 -  4) =     -1.79115  eV     1   --> A_2  D_2  S_2  
     e(  5 -  5) =      0.76989  eV     1   --> B_1  D_3  S_3  
     e(  6 -  6) =     10.76723  eV     1   --> B_1  D_3  S_3  
     e(  7 -  7) =     10.87352  eV     1   --> A_1  D_1  S_1  
     e(  8 -  8) =     11.48658  eV     1   --> B_2  D_4  S_4  

 **************************************************************************

 **************************************************************************

                    xk=(   0.60000,   0.11547,   0.00000  )

     Band symmetry, C_2v (mm2)  point group:

     e(  1 -  1) =    -14.12921  eV     1   --> B_2  D_4  S_4  
     e(  2 -  2) =    -13.14989  eV     1   --> A_1  D_1  S_1  
     e(  3 -  3) =     -9.30689  eV     1   --> A_1  D_1  S_1  
     e(  4 -  4) =     -1.93984  eV     1   --> A_2  D_2  S_2  
     e(  5 -  5) =      0.86926  eV     1   --> B_1  D_3  S_3  
     e(  6 -  6) =     10.42325  eV     1   --> A_1  D_1  S_1  
     e(  7 -  7) =     10.92323  eV     1   --> B_1  D_3  S_3  
     e(  8 -  8) =     11.35292  eV     1   --> B_2  D_4  S_4  

 **************************************************************************

 **************************************************************************

                    xk=(   0.59167,   0.12990,   0.00000  )

     Band symmetry, C_2v (mm2)  point group:

     e(  1 -  1) =    -14.22613  eV     1   --> B_2  D_4  S_4  
     e(  2 -  2) =    -13.23068  eV     1   --> A_1  D_1  S_1  
     e(  3 -  3) =     -8.99901  eV     1   --> A_1  D_1  S_1  
     e(  4 -  4) =     -2.07688  eV     1   --> A_2  D_2  S_2  
     e(  5 -  5) =      0.95266  eV     1   --> B_1  D_3  S_3  
     e(  6 -  6) =      9.97240  eV     1   --> A_1  D_1  S_1  
     e(  7 -  7) =     11.08141  eV     1   --> B_1  D_3  S_3  
     e(  8 -  8) =     11.22674  eV     1   --> B_2  D_4  S_4  

 **************************************************************************

 **************************************************************************

                    xk=(   0.58333,   0.14434,   0.00000  )

     Band symmetry, C_2v (mm2)  point group:

     e(  1 -  1) =    -14.31465  eV     1   --> B_2  D_4  S_4  
     e(  2 -  2) =    -13.30809  eV     1   --> A_1  D_1  S_1  
     e(  3 -  3) =     -8.69590  eV     1   --> A_1  D_1  S_1  
     e(  4 -  4) =     -2.20223  eV     1   --> A_2  D_2  S_2  
     e(  5 -  5) =      1.02163  eV     1   --> B_1  D_3  S_3  
     e(  6 -  6) =      9.53084  eV     1   --> A_1  D_1  S_1  
     e(  7 -  7) =     11.10916  eV     1   --> B_2  D_4  S_4  
     e(  8 -  8) =     11.23410  eV     1   -->   ?

 **************************************************************************

 **************************************************************************

                    xk=(   0.57500,   0.15877,   0.00000  )

     Band symmetry, C_2v (mm2)  point group:

     e(  1 -  1) =    -14.39479  eV     1   --> B_2  D_4  S_4  
     e(  2 -  2) =    -13.38063  eV     1   --> A_1  D_1  S_1  
     e(  3 -  3) =     -8.40198  eV     1   --> A_1  D_1  S_1  
     e(  4 -  4) =     -2.31586  eV     1   --> A_2  D_2  S_2  
     e(  5 -  5) =      1.07778  eV     1   --> B_1  D_3  S_3  
     e(  6 -  6) =      9.10616  eV     1   --> A_1  D_1  S_1  
     e(  7 -  7) =     11.00103  eV     1   --> B_2  D_4  S_4  
     e(  8 -  8) =     11.16136  eV     1   --> A_1  D_1  S_1  

 **************************************************************************

 **************************************************************************

                    xk=(   0.56667,   0.17321,   0.00000  )

     Band symmetry, C_2v (mm2)  point group:

     e(  1 -  1) =    -14.46651  eV     1   --> B_2  D_4  S_4  
     e(  2 -  2) =    -13.44724  eV     1   --> A_1  D_1  S_1  
     e(  3 -  3) =     -8.12147  eV     1   --> A_1  D_1  S_1  
     e(  4 -  4) =     -2.41765  eV     1   --> A_2  D_2  S_2  
     e(  5 -  5) =      1.12284  eV     1   --> B_1  D_3  S_3  
     e(  6 -  6) =      8.70487  eV     1   --> A_1  D_1  S_1  
     e(  7 -  7) =     10.90303  eV     1   --> B_2  D_4  S_4  
     e(  8 -  8) =     11.05609  eV     1   --> A_1  D_1  S_1  

 **************************************************************************

 **************************************************************************

                    xk=(   0.55833,   0.18764,   0.00000  )

     Band symmetry, C_2v (mm2)  point group:

     e(  1 -  1) =    -14.52982  eV     1   --> B_2  D_4  S_4  
     e(  2 -  2) =    -13.50719  eV     1   --> A_1  D_1  S_1  
     e(  3 -  3) =     -7.85877  eV     1   --> A_1  D_1  S_1  
     e(  4 -  4) =     -2.50757  eV     1   --> A_2  D_2  S_2  
     e(  5 -  5) =      1.15842  eV     1   --> B_1  D_3  S_3  
     e(  6 -  6) =      8.33276  eV     1   --> A_1  D_1  S_1  
     e(  7 -  7) =     10.81566  eV     1   --> B_2  D_4  S_4  
     e(  8 -  8) =     10.96276  eV     1   --> A_1  D_1  S_1  

 **************************************************************************

 **************************************************************************

                    xk=(   0.55000,   0.20207,   0.00000  )

     Band symmetry, C_2v (mm2)  point group:

     e(  1 -  1) =    -14.58470  eV     1   --> B_2  D_4  S_4  
     e(  2 -  2) =    -13.55994  eV     1   --> A_1  D_1  S_1  
     e(  3 -  3) =     -7.61821  eV     1   --> A_1  D_1  S_1  
     e(  4 -  4) =     -2.58561  eV     1   --> A_2  D_2  S_2  
     e(  5 -  5) =      1.18601  eV     1   --> B_1  D_3  S_3  
     e(  6 -  6) =      7.99555  eV     1   --> A_1  D_1  S_1  
     e(  7 -  7) =     10.73931  eV     1   --> B_2  D_4  S_4  
     e(  8 -  8) =     10.88153  eV     1   --> A_1  D_1  S_1  

 **************************************************************************

 **************************************************************************

                    xk=(   0.54167,   0.21651,   0.00000  )

     Band symmetry, C_2v (mm2)  point group:

     e(  1 -  1) =    -14.63115  eV     1   --> B_2  D_4  S_4  
     e(  2 -  2) =    -13.60510  eV     1   --> A_1  D_1  S_1  
     e(  3 -  3) =     -7.40435  eV     1   --> A_1  D_1  S_1  
     e(  4 -  4) =     -2.65167  eV     1   --> A_2  D_2  S_2  
     e(  5 -  5) =      1.20702  eV     1   --> B_1  D_3  S_3  
     e(  6 -  6) =      7.69863  eV     1   --> A_1  D_1  S_1  
     e(  7 -  7) =     10.67427  eV     1   --> B_2  D_4  S_4  
     e(  8 -  8) =     10.81257  eV     1   --> A_1  D_1  S_1  

 **************************************************************************

 **************************************************************************

                    xk=(   0.53333,   0.23094,   0.00000  )

     Band symmetry, C_2v (mm2)  point group:

     e(  1 -  1) =    -14.66916  eV     1   --> B_2  D_4  S_4  
     e(  2 -  2) =    -13.64238  eV     1   --> A_1  D_1  S_1  
     e(  3 -  3) =     -7.22161  eV     1   --> A_1  D_1  S_1  
     e(  4 -  4) =     -2.70576  eV     1   --> A_2  D_2  S_2  
     e(  5 -  5) =      1.22257  eV     1   --> B_1  D_3  S_3  
     e(  6 -  6) =      7.44712  eV     1   --> A_1  D_1  S_1  
     e(  7 -  7) =     10.62079  eV     1   --> B_2  D_4  S_4  
     e(  8 -  8) =     10.75598  eV     1   --> A_1  D_1  S_1  

 **************************************************************************

 **************************************************************************

                    xk=(   0.52500,   0.24537,   0.00000  )

     Band symmetry, C_2v (mm2)  point group:

     e(  1 -  1) =    -14.69874  eV     1   --> B_2  D_4  S_4  
     e(  2 -  2) =    -13.67159  eV     1   --> A_1  D_1  S_1  
     e(  3 -  3) =     -7.07428  eV     1   --> A_1  D_1  S_1  
     e(  4 -  4) =     -2.74788  eV     1   --> A_2  D_2  S_2  
     e(  5 -  5) =      1.23362  eV     1   --> B_1  D_3  S_3  
     e(  6 -  6) =      7.24570  eV     1   --> A_1  D_1  S_1  
     e(  7 -  7) =     10.57903  eV     1   --> B_2  D_4  S_4  
     e(  8 -  8) =     10.71187  eV     1   --> A_1  D_1  S_1  

 **************************************************************************

 **************************************************************************

                    xk=(   0.51667,   0.25981,   0.00000  )

     Band symmetry, C_2v (mm2)  point group:

     e(  1 -  1) =    -14.71986  eV     1   --> B_2  D_4  S_4  
     e(  2 -  2) =    -13.69254  eV     1   --> A_1  D_1  S_1  
     e(  3 -  3) =     -6.96600  eV     1   --> A_1  D_1  S_1  
     e(  4 -  4) =     -2.77798  eV     1   --> A_2  D_2  S_2  
     e(  5 -  5) =      1.24098  eV     1   --> B_1  D_3  S_3  
     e(  6 -  6) =      7.09863  eV     1   --> A_1  D_1  S_1  
     e(  7 -  7) =     10.54911  eV     1   --> B_2  D_4  S_4  
     e(  8 -  8) =     10.68031  eV     1   --> A_1  D_1  S_1  

 **************************************************************************

 **************************************************************************

                    xk=(   0.50833,   0.27424,   0.00000  )

     Band symmetry, C_2v (mm2)  point group:

     e(  1 -  1) =    -14.73254  eV     1   --> B_2  D_4  S_4  
     e(  2 -  2) =    -13.70515  eV     1   --> A_1  D_1  S_1  
     e(  3 -  3) =     -6.89978  eV     1   --> A_1  D_1  S_1  
     e(  4 -  4) =     -2.79602  eV     1   --> A_2  D_2  S_2  
     e(  5 -  5) =      1.24519  eV     1   --> B_1  D_3  S_3  
     e(  6 -  6) =      7.00900  eV     1   --> A_1  D_1  S_1  
     e(  7 -  7) =     10.53114  eV     1   --> B_2  D_4  S_4  
     e(  8 -  8) =     10.66136  eV     1   --> A_1  D_1  S_1  

 **************************************************************************

 **************************************************************************

                    xk=(   0.50000,   0.28868,   0.00000  )

     point group D_2h (mmm) 
     there are  8 classes
     the character table:

       E     C2    C2'   C2''  i     s_v   s_v'  s_v''
A_g    1.00  1.00  1.00  1.00  1.00  1.00  1.00  1.00
B_1g   1.00  1.00 -1.00 -1.00  1.00  1.00 -1.00 -1.00
B_2g   1.00 -1.00  1.00 -1.00  1.00 -1.00  1.00 -1.00
B_3g   1.00 -1.00 -1.00  1.00  1.00 -1.00 -1.00  1.00
A_u    1.00  1.00  1.00  1.00 -1.00 -1.00 -1.00 -1.00
B_1u   1.00  1.00 -1.00 -1.00 -1.00 -1.00  1.00  1.00
B_2u   1.00 -1.00  1.00 -1.00 -1.00  1.00 -1.00  1.00
B_3u   1.00 -1.00 -1.00  1.00 -1.00  1.00  1.00 -1.00

     the symmetry operations in each class and the name of the first element:

     E        1
                                                                 
     C2       2
                                                                 
     C2'      4
                                                                 
     C2''     3
                                                                 
     i        5
                                                                 
     s_v      6
                                                                 
     s_v'     8
                                                                 
     s_v''    7
                                                                 

     Band symmetry, D_2h (mmm)  point group:

     e(  1 -  1) =    -14.73676  eV     1   --> B_3u           
     e(  2 -  2) =    -13.70936  eV     1   --> A_g            
     e(  3 -  3) =     -6.87749  eV     1   --> B_2u           
     e(  4 -  4) =     -2.80203  eV     1   --> B_2g           
     e(  5 -  5) =      1.24657  eV     1   --> B_1u           
     e(  6 -  6) =      6.97888  eV     1   --> A_g            
     e(  7 -  7) =     10.52514  eV     1   --> B_3u           
     e(  8 -  8) =     10.65504  eV     1   --> A_g            

 **************************************************************************

 **************************************************************************

                    xk=(   0.48750,   0.28146,   0.00000  )

     point group C_2v (mm2) 
     there are  4 classes
     the character table:

       E     C2    s_v   s_v' 
A_1    1.00  1.00  1.00  1.00
A_2    1.00  1.00 -1.00 -1.00
B_1    1.00 -1.00  1.00 -1.00
B_2    1.00 -1.00 -1.00  1.00

     the symmetry operations in each class and the name of the first element:

     E        1
                                                                 
     C2       2
                                                                 
     s_v      3
                                                                 
     s_v'     4
                                                                 

     Band symmetry, C_2v (mm2)  point group:

     e(  1 -  1) =    -14.80357  eV     1   --> A_1  D_1  S_1  
     e(  2 -  2) =    -13.63701  eV     1   --> A_1  D_1  S_1  
     e(  3 -  3) =     -6.87380  eV     1   --> B_1  D_3  S_3  
     e(  4 -  4) =     -2.82650  eV     1   --> B_2  D_4  S_4  
     e(  5 -  5) =      1.27685  eV     1   --> B_2  D_4  S_4  
     e(  6 -  6) =      6.98076  eV     1   --> A_1  D_1  S_1  
     e(  7 -  7) =     10.19928  eV     1   --> A_1  D_1  S_1  
     e(  8 -  8) =     10.98817  eV     1   --> A_1  D_1  S_1  

 **************************************************************************

 **************************************************************************

                    xk=(   0.47500,   0.27424,   0.00000  )

     Band symmetry, C_2v (mm2)  point group:

     e(  1 -  1) =    -14.96636  eV     1   --> A_1  D_1  S_1  
     e(  2 -  2) =    -13.45769  eV     1   --> A_1  D_1  S_1  
     e(  3 -  3) =     -6.86272  eV     1   --> B_1  D_3  S_3  
     e(  4 -  4) =     -2.89774  eV     1   --> B_2  D_4  S_4  
     e(  5 -  5) =      1.36552  eV     1   --> B_2  D_4  S_4  
     e(  6 -  6) =      6.98628  eV     1   --> A_1  D_1  S_1  
     e(  7 -  7) =      9.82447  eV     1   --> A_1  D_1  S_1  
     e(  8 -  8) =     11.28262  eV     1   --> B_2  D_4  S_4  

 **************************************************************************

 **************************************************************************

                    xk=(   0.46250,   0.26702,   0.00000  )

     Band symmetry, C_2v (mm2)  point group:

     e(  1 -  1) =    -15.17285  eV     1   --> A_1  D_1  S_1  
     e(  2 -  2) =    -13.22368  eV     1   --> A_1  D_1  S_1  
     e(  3 -  3) =     -6.84433  eV     1   --> B_1  D_3  S_3  
     e(  4 -  4) =     -3.00996  eV     1   --> B_2  D_4  S_4  
     e(  5 -  5) =      1.50669  eV     1   --> B_2  D_4  S_4  
     e(  6 -  6) =      6.99541  eV     1   --> A_1  D_1  S_1  
     e(  7 -  7) =      9.45632  eV     1   --> A_1  D_1  S_1  
     e(  8 -  8) =     10.93985  eV     1   --> B_2  D_4  S_4  

 **************************************************************************

 **************************************************************************

                    xk=(   0.45000,   0.25981,   0.00000  )

     Band symmetry, C_2v (mm2)  point group:

     e(  1 -  1) =    -15.39632  eV     1   --> A_1  D_1  S_1  
     e(  2 -  2) =    -12.96176  eV     1   --> A_1  D_1  S_1  
     e(  3 -  3) =     -6.81861  eV     1   --> B_1  D_3  S_3  
     e(  4 -  4) =     -3.15549  eV     1   --> B_2  D_4  S_4  
     e(  5 -  5) =      1.69260  eV     1   --> B_2  D_4  S_4  
     e(  6 -  6) =      7.00806  eV     1   --> A_1  D_1  S_1  
     e(  7 -  7) =      9.09655  eV     1   --> A_1  D_1  S_1  
     e(  8 -  8) =     10.59935  eV     1   --> B_2  D_4  S_4  

 **************************************************************************

 **************************************************************************

                    xk=(   0.43750,   0.25259,   0.00000  )

     Band symmetry, C_2v (mm2)  point group:

     e(  1 -  1) =    -15.62536  eV     1   --> A_1  D_1  S_1  
     e(  2 -  2) =    -12.68345  eV     1   --> A_1  D_1  S_1  
     e(  3 -  3) =     -6.78564  eV     1   --> B_1  D_3  S_3  
     e(  4 -  4) =     -3.32654  eV     1   --> B_2  D_4  S_4  
     e(  5 -  5) =      1.91525  eV     1   --> B_2  D_4  S_4  
     e(  6 -  6) =      7.02400  eV     1   --> A_1  D_1  S_1  
     e(  7 -  7) =      8.74581  eV     1   --> A_1  D_1  S_1  
     e(  8 -  8) =     10.26417  eV     1   --> B_2  D_4  S_4  

 **************************************************************************

 **************************************************************************

                    xk=(   0.42500,   0.24537,   0.00000  )

     Band symmetry, C_2v (mm2)  point group:

     e(  1 -  1) =    -15.85474  eV     1   --> A_1  D_1  S_1  
     e(  2 -  2) =    -12.39404  eV     1   --> A_1  D_1  S_1  
     e(  3 -  3) =     -6.74545  eV     1   --> B_1  D_3  S_3  
     e(  4 -  4) =     -3.51608  eV     1   --> B_2  D_4  S_4  
     e(  5 -  5) =      2.16749  eV     1   --> B_2  D_4  S_4  
     e(  6 -  6) =      7.04292  eV     1   --> A_1  D_1  S_1  
     e(  7 -  7) =      8.40466  eV     1   --> A_1  D_1  S_1  
     e(  8 -  8) =      9.93567  eV     1   --> B_2  D_4  S_4  

 **************************************************************************

 **************************************************************************

                    xk=(   0.41250,   0.23816,   0.00000  )

     Band symmetry, C_2v (mm2)  point group:

     e(  1 -  1) =    -16.08183  eV     1   --> A_1  D_1  S_1  
     e(  2 -  2) =    -12.09631  eV     1   --> A_1  D_1  S_1  
     e(  3 -  3) =     -6.69814  eV     1   --> B_1  D_3  S_3  
     e(  4 -  4) =     -3.71838  eV     1   --> B_2  D_4  S_4  
     e(  5 -  5) =      2.44331  eV     1   --> B_2  D_4  S_4  
     e(  6 -  6) =      7.06410  eV     1   --> A_1  D_1  S_1  
     e(  7 -  7) =      8.07391  eV     1   --> A_1  D_1  S_1  
     e(  8 -  8) =      9.61460  eV     1   --> B_2  D_4  S_4  

 **************************************************************************

 **************************************************************************

                    xk=(   0.40000,   0.23094,   0.00000  )

     Band symmetry, C_2v (mm2)  point group:

     e(  1 -  1) =    -16.30514  eV     1   --> A_1  D_1  S_1  
     e(  2 -  2) =    -11.79187  eV     1   --> A_1  D_1  S_1  
     e(  3 -  3) =     -6.64379  eV     1   --> B_1  D_3  S_3  
     e(  4 -  4) =     -3.92888  eV     1   --> B_2  D_4  S_4  
     e(  5 -  5) =      2.73783  eV     1   --> B_2  D_4  S_4  
     e(  6 -  6) =      7.08554  eV     1   --> A_1  D_1  S_1  
     e(  7 -  7) =      7.75555  eV     1   --> A_1  D_1  S_1  
     e(  8 -  8) =      9.30151  eV     1   --> B_2  D_4  S_4  

 **************************************************************************

 **************************************************************************

                    xk=(   0.38750,   0.22372,   0.00000  )

     Band symmetry, C_2v (mm2)  point group:

     e(  1 -  1) =    -16.52379  eV     1   --> A_1  D_1  S_1  
     e(  2 -  2) =    -11.48189  eV     1   --> A_1  D_1  S_1  
     e(  3 -  3) =     -6.58252  eV     1   --> B_1  D_3  S_3  
     e(  4 -  4) =     -4.14416  eV     1   --> B_2  D_4  S_4  
     e(  5 -  5) =      3.04720  eV     1   --> B_2  D_4  S_4  
     e(  6 -  6) =      7.09856  eV     1   --> A_1  D_1  S_1  
     e(  7 -  7) =      7.45819  eV     1   --> A_1  D_1  S_1  
     e(  8 -  8) =      8.99678  eV     1   --> B_2  D_4  S_4  

 **************************************************************************

 **************************************************************************

                    xk=(   0.37500,   0.21651,   0.00000  )

     Band symmetry, C_2v (mm2)  point group:

     e(  1 -  1) =    -16.73718  eV     1   --> A_1  D_1  S_1  
     e(  2 -  2) =    -11.16705  eV     1   --> A_1  D_1  S_1  
     e(  3 -  3) =     -6.51445  eV     1   --> B_1  D_3  S_3  
     e(  4 -  4) =     -4.36144  eV     1   --> B_2  D_4  S_4  
     e(  5 -  5) =      3.36835  eV     1   --> B_2  D_4  S_4  
     e(  6 -  6) =      7.03312  eV     1   --> A_1  D_1  S_1  
     e(  7 -  7) =      7.25182  eV     1   --> A_1  D_1  S_1  
     e(  8 -  8) =      8.70073  eV     1   --> B_2  D_4  S_4  

 **************************************************************************

 **************************************************************************

                    xk=(   0.36250,   0.20929,   0.00000  )

     Band symmetry, C_2v (mm2)  point group:

     e(  1 -  1) =    -16.94493  eV     1   --> A_1  D_1  S_1  
     e(  2 -  2) =    -10.84806  eV     1   --> A_1  D_1  S_1  
     e(  3 -  3) =     -6.43973  eV     1   --> B_1  D_3  S_3  
     e(  4 -  4) =     -4.57869  eV     1   --> B_2  D_4  S_4  
     e(  5 -  5) =      3.69868  eV     1   --> B_2  D_4  S_4  
     e(  6 -  6) =      6.79436  eV     1   --> A_1  D_1  S_1  
     e(  7 -  7) =      7.23100  eV     1   --> A_1  D_1  S_1  
     e(  8 -  8) =      8.41366  eV     1   --> B_2  D_4  S_4  

 **************************************************************************

 **************************************************************************

                    xk=(   0.35000,   0.20207,   0.00000  )

     Band symmetry, C_2v (mm2)  point group:

     e(  1 -  1) =    -17.14673  eV     1   --> A_1  D_1  S_1  
     e(  2 -  2) =    -10.52548  eV     1   --> A_1  D_1  S_1  
     e(  3 -  3) =     -6.35853  eV     1   --> B_1  D_3  S_3  
     e(  4 -  4) =     -4.79425  eV     1   --> B_2  D_4  S_4  
     e(  5 -  5) =      4.03598  eV     1   --> B_2  D_4  S_4  
     e(  6 -  6) =      6.52036  eV     1   --> A_1  D_1  S_1  
     e(  7 -  7) =      7.25742  eV     1   --> A_1  D_1  S_1  
     e(  8 -  8) =      8.13585  eV     1   --> B_2  D_4  S_4  

 **************************************************************************

 **************************************************************************

                    xk=(   0.33750,   0.19486,   0.00000  )

     Band symmetry, C_2v (mm2)  point group:

     e(  1 -  1) =    -17.34237  eV     1   --> A_1  D_1  S_1  
     e(  2 -  2) =    -10.19987  eV     1   --> A_1  D_1  S_1  
     e(  3 -  3) =     -6.27107  eV     1   --> B_1  D_3  S_3  
     e(  4 -  4) =     -5.00688  eV     1   --> B_2  D_4  S_4  
     e(  5 -  5) =      4.37828  eV     1   --> B_2  D_4  S_4  
     e(  6 -  6) =      6.24885  eV     1   --> A_1  D_1  S_1  
     e(  7 -  7) =      7.29290  eV     1   --> A_1  D_1  S_1  
     e(  8 -  8) =      7.86762  eV     1   --> B_2  D_4  S_4  

 **************************************************************************

 **************************************************************************

                    xk=(   0.32500,   0.18764,   0.00000  )

     Band symmetry, C_2v (mm2)  point group:

     e(  1 -  1) =    -17.53166  eV     1   --> A_1  D_1  S_1  
     e(  2 -  2) =     -9.87173  eV     1   --> A_1  D_1  S_1  
     e(  3 -  3) =     -6.17752  eV     1   --> B_1  D_3  S_3  
     e(  4 -  4) =     -5.21556  eV     1   --> B_2  D_4  S_4  
     e(  5 -  5) =      4.72373  eV     1   --> B_2  D_4  S_4  
     e(  6 -  6) =      5.98490  eV     1   --> A_1  D_1  S_1  
     e(  7 -  7) =      7.33167  eV     1   --> A_1  D_1  S_1  
     e(  8 -  8) =      7.60941  eV     1   --> B_2  D_4  S_4  

 **************************************************************************

 **************************************************************************

                    xk=(   0.31250,   0.18042,   0.00000  )

     Band symmetry, C_2v (mm2)  point group:

     e(  1 -  1) =    -17.71446  eV     1   --> A_1  D_1  S_1  
     e(  2 -  2) =     -9.54163  eV     1   --> A_1  D_1  S_1  
     e(  3 -  3) =     -6.07811  eV     1   --> B_1  D_3  S_3  
     e(  4 -  4) =     -5.41947  eV     1   --> B_2  D_4  S_4  
     e(  5 -  5) =      5.07029  eV     1   --> B_2  D_4  S_4  
     e(  6 -  6) =      5.72985  eV     1   --> A_1  D_1  S_1  
     e(  7 -  7) =      7.36192  eV     1   --> B_2  D_4  S_4  
     e(  8 -  8) =      7.37124  eV     1   --> A_1  D_1  S_1  

 **************************************************************************

 **************************************************************************

                    xk=(   0.30000,   0.17321,   0.00000  )

     Band symmetry, C_2v (mm2)  point group:

     e(  1 -  1) =    -17.89067  eV     1   --> A_1  D_1  S_1  
     e(  2 -  2) =     -9.21012  eV     1   --> A_1  D_1  S_1  
     e(  3 -  3) =     -5.97323  eV     1   --> B_1  D_3  S_3  
     e(  4 -  4) =     -5.61799  eV     1   --> B_2  D_4  S_4  
     e(  5 -  5) =      5.41520  eV     1   --> B_2  D_4  S_4  
     e(  6 -  6) =      5.48418  eV     1   --> A_1  D_1  S_1  
     e(  7 -  7) =      7.12666  eV     1   --> B_2  D_4  S_4  
     e(  8 -  8) =      7.40854  eV     1   --> A_1  D_1  S_1  

 **************************************************************************

 **************************************************************************

                    xk=(   0.28750,   0.16599,   0.00000  )

     Band symmetry, C_2v (mm2)  point group:

     e(  1 -  1) =    -18.06017  eV     1   --> A_1  D_1  S_1  
     e(  2 -  2) =     -8.87778  eV     1   --> A_1  D_1  S_1  
     e(  3 -  3) =     -5.86310  eV     1   --> B_1  D_3  S_3  
     e(  4 -  4) =     -5.81058  eV     1   --> B_2  D_4  S_4  
     e(  5 -  5) =      5.24814  eV     1   --> A_1  D_1  S_1  
     e(  6 -  6) =      5.75309  eV     1   --> B_2  D_4  S_4  
     e(  7 -  7) =      6.90778  eV     1   --> B_2  D_4  S_4  
     e(  8 -  8) =      7.43662  eV     1   --> A_1  D_1  S_1  

 **************************************************************************

 **************************************************************************

                    xk=(   0.27500,   0.15877,   0.00000  )

     Band symmetry, C_2v (mm2)  point group:

     e(  1 -  1) =    -18.22289  eV     1   --> A_1  D_1  S_1  
     e(  2 -  2) =     -8.54524  eV     1   --> A_1  D_1  S_1  
     e(  3 -  3) =     -5.99676  eV     1   --> B_2  D_4  S_4  
     e(  4 -  4) =     -5.74811  eV     1   --> B_1  D_3  S_3  
     e(  5 -  5) =      5.02186  eV     1   --> A_1  D_1  S_1  
     e(  6 -  6) =      6.06563  eV     1   --> B_2  D_4  S_4  
     e(  7 -  7) =      6.72257  eV     1   --> B_2  D_4  S_4  
     e(  8 -  8) =      7.43241  eV     1   --> A_1  D_1  S_1  

 **************************************************************************

 **************************************************************************

                    xk=(   0.26250,   0.15155,   0.00000  )

     Band symmetry, C_2v (mm2)  point group:

     e(  1 -  1) =    -18.37876  eV     1   --> A_1  D_1  S_1  
     e(  2 -  2) =     -8.21327  eV     1   --> A_1  D_1  S_1  
     e(  3 -  3) =     -6.17624  eV     1   --> B_2  D_4  S_4  
     e(  4 -  4) =     -5.62866  eV     1   --> B_1  D_3  S_3  
     e(  5 -  5) =      4.80542  eV     1   --> A_1  D_1  S_1  
     e(  6 -  6) =      6.24534  eV     1   --> B_2  D_4  S_4  
     e(  7 -  7) =      6.67726  eV     1   --> B_2  D_4  S_4  
     e(  8 -  8) =      7.34568  eV     1   --> A_1  D_1  S_1  

 **************************************************************************

 **************************************************************************

                    xk=(   0.25000,   0.14434,   0.00000  )

     Band symmetry, C_2v (mm2)  point group:

     e(  1 -  1) =    -18.52771  eV     1   --> A_1  D_1  S_1  
     e(  2 -  2) =     -7.88257  eV     1   --> A_1  D_1  S_1  
     e(  3 -  3) =     -6.34867  eV     1   --> B_2  D_4  S_4  
     e(  4 -  4) =     -5.50516  eV     1   --> B_1  D_3  S_3  
     e(  5 -  5) =      4.59889  eV     1   --> A_1  D_1  S_1  
     e(  6 -  6) =      6.15875  eV     1   --> B_2  D_4  S_4  
     e(  7 -  7) =      6.90425  eV     1   --> B_2  D_4  S_4  
     e(  8 -  8) =      7.18819  eV     1   --> A_1  D_1  S_1  

 **************************************************************************

 **************************************************************************

                    xk=(   0.23750,   0.13712,   0.00000  )

     Band symmetry, C_2v (mm2)  point group:

     e(  1 -  1) =    -18.66967  eV     1   --> A_1  D_1  S_1  
     e(  2 -  2) =     -7.55395  eV     1   --> A_1  D_1  S_1  
     e(  3 -  3) =     -6.51378  eV     1   --> B_2  D_4  S_4  
     e(  4 -  4) =     -5.37816  eV     1   --> B_1  D_3  S_3  
     e(  5 -  5) =      4.40230  eV     1   --> A_1  D_1  S_1  
     e(  6 -  6) =      5.99330  eV     1   --> B_2  D_4  S_4  
     e(  7 -  7) =      7.01214  eV     1   --> A_1  D_1  S_1  
     e(  8 -  8) =      7.21494  eV     1   --> B_2  D_4  S_4  

 **************************************************************************

 **************************************************************************

                    xk=(   0.22500,   0.12990,   0.00000  )

     Band symmetry, C_2v (mm2)  point group:

     e(  1 -  1) =    -18.80461  eV     1   --> A_1  D_1  S_1  
     e(  2 -  2) =     -7.22836  eV     1   --> A_1  D_1  S_1  
     e(  3 -  3) =     -6.67137  eV     1   --> B_2  D_4  S_4  
     e(  4 -  4) =     -5.24818  eV     1   --> B_1  D_3  S_3  
     e(  5 -  5) =      4.21569  eV     1   --> A_1  D_1  S_1  
     e(  6 -  6) =      5.82044  eV     1   --> B_2  D_4  S_4  
     e(  7 -  7) =      6.83671  eV     1   --> A_1  D_1  S_1  
     e(  8 -  8) =      7.53674  eV     1   --> B_2  D_4  S_4  

 **************************************************************************

 **************************************************************************

                    xk=(   0.21250,   0.12269,   0.00000  )

     Band symmetry, C_2v (mm2)  point group:

     e(  1 -  1) =    -18.93247  eV     1   --> A_1  D_1  S_1  
     e(  2 -  2) =     -6.90670  eV     1   --> A_1  D_1  S_1  
     e(  3 -  3) =     -6.82120  eV     1   --> B_2  D_4  S_4  
     e(  4 -  4) =     -5.11585  eV     1   --> B_1  D_3  S_3  
     e(  5 -  5) =      4.03909  eV     1   --> A_1  D_1  S_1  
     e(  6 -  6) =      5.65195  eV     1   --> B_2  D_4  S_4  
     e(  7 -  7) =      6.66738  eV     1   --> A_1  D_1  S_1  
     e(  8 -  8) =      7.80597  eV     1   --> A_1  D_1  S_1  

 **************************************************************************

 **************************************************************************

                    xk=(   0.20000,   0.11547,   0.00000  )

     Band symmetry, C_2v (mm2)  point group:

     e(  1 -  1) =    -19.05321  eV     1   --> A_1  D_1  S_1  
     e(  2 -  2) =     -6.96313  eV     1   --> B_2  D_4  S_4  
     e(  3 -  3) =     -6.59015  eV     1   --> A_1  D_1  S_1  
     e(  4 -  4) =     -4.98192  eV     1   --> B_1  D_3  S_3  
     e(  5 -  5) =      3.87251  eV     1   --> A_1  D_1  S_1  
     e(  6 -  6) =      5.49093  eV     1   --> B_2  D_4  S_4  
     e(  7 -  7) =      6.50610  eV     1   --> A_1  D_1  S_1  
     e(  8 -  8) =      7.84415  eV     1   --> A_1  D_1  S_1  

 **************************************************************************

 **************************************************************************

                    xk=(   0.18750,   0.10825,   0.00000  )

     Band symmetry, C_2v (mm2)  point group:

     e(  1 -  1) =    -19.16680  eV     1   --> A_1  D_1  S_1  
     e(  2 -  2) =     -7.09702  eV     1   --> B_2  D_4  S_4  
     e(  3 -  3) =     -6.27981  eV     1   --> A_1  D_1  S_1  
     e(  4 -  4) =     -4.84709  eV     1   --> B_1  D_3  S_3  
     e(  5 -  5) =      3.71598  eV     1   --> A_1  D_1  S_1  
     e(  6 -  6) =      5.33855  eV     1   --> B_2  D_4  S_4  
     e(  7 -  7) =      6.35370  eV     1   --> A_1  D_1  S_1  
     e(  8 -  8) =      7.87954  eV     1   --> A_1  D_1  S_1  

 **************************************************************************

 **************************************************************************

                    xk=(   0.17500,   0.10104,   0.00000  )

     Band symmetry, C_2v (mm2)  point group:

     e(  1 -  1) =    -19.27320  eV     1   --> A_1  D_1  S_1  
     e(  2 -  2) =     -7.22275  eV     1   --> B_2  D_4  S_4  
     e(  3 -  3) =     -5.97704  eV     1   --> A_1  D_1  S_1  
     e(  4 -  4) =     -4.71227  eV     1   --> B_1  D_3  S_3  
     e(  5 -  5) =      3.56950  eV     1   --> A_1  D_1  S_1  
     e(  6 -  6) =      5.19534  eV     1   --> B_2  D_4  S_4  
     e(  7 -  7) =      6.21062  eV     1   --> A_1  D_1  S_1  
     e(  8 -  8) =      7.91101  eV     1   --> A_1  D_1  S_1  

 **************************************************************************

 **************************************************************************

                    xk=(   0.16250,   0.09382,   0.00000  )

     Band symmetry, C_2v (mm2)  point group:

     e(  1 -  1) =    -19.37239  eV     1   --> A_1  D_1  S_1  
     e(  2 -  2) =     -7.34020  eV     1   --> B_2  D_4  S_4  
     e(  3 -  3) =     -5.68326  eV     1   --> A_1  D_1  S_1  
     e(  4 -  4) =     -4.57839  eV     1   --> B_1  D_3  S_3  
     e(  5 -  5) =      3.43309  eV     1   --> A_1  D_1  S_1  
     e(  6 -  6) =      5.06158  eV     1   --> B_2  D_4  S_4  
     e(  7 -  7) =      6.07710  eV     1   --> A_1  D_1  S_1  
     e(  8 -  8) =      7.93764  eV     1   --> A_1  D_1  S_1  

 **************************************************************************

 **************************************************************************

                    xk=(   0.15000,   0.08660,   0.00000  )

     Band symmetry, C_2v (mm2)  point group:

     e(  1 -  1) =    -19.46433  eV     1   --> A_1  D_1  S_1  
     e(  2 -  2) =     -7.44927  eV     1   --> B_2  D_4  S_4  
     e(  3 -  3) =     -5.39998  eV     1   --> A_1  D_1  S_1  
     e(  4 -  4) =     -4.44655  eV     1   --> B_1  D_3  S_3  
     e(  5 -  5) =      3.30676  eV     1   --> A_1  D_1  S_1  
     e(  6 -  6) =      4.93745  eV     1   --> B_2  D_4  S_4  
     e(  7 -  7) =      5.95326  eV     1   --> A_1  D_1  S_1  
     e(  8 -  8) =      7.95876  eV     1   --> A_1  D_1  S_1  

 **************************************************************************

 **************************************************************************

                    xk=(   0.13750,   0.07939,   0.00000  )

     Band symmetry, C_2v (mm2)  point group:

     e(  1 -  1) =    -19.54900  eV     1   --> A_1  D_1  S_1  
     e(  2 -  2) =     -7.54985  eV     1   --> B_2  D_4  S_4  
     e(  3 -  3) =     -5.12885  eV     1   --> A_1  D_1  S_1  
     e(  4 -  4) =     -4.31785  eV     1   --> B_1  D_3  S_3  
     e(  5 -  5) =      3.19052  eV     1   --> A_1  D_1  S_1  
     e(  6 -  6) =      4.82305  eV     1   --> B_2  D_4  S_4  
     e(  7 -  7) =      5.83920  eV     1   --> A_1  D_1  S_1  
     e(  8 -  8) =      7.97391  eV     1   --> A_1  D_1  S_1  

 **************************************************************************

 **************************************************************************

                    xk=(   0.12500,   0.07217,   0.00000  )

     Band symmetry, C_2v (mm2)  point group:

     e(  1 -  1) =    -19.62637  eV     1   --> A_1  D_1  S_1  
     e(  2 -  2) =     -7.64192  eV     1   --> B_2  D_4  S_4  
     e(  3 -  3) =     -4.87166  eV     1   --> A_1  D_1  S_1  
     e(  4 -  4) =     -4.19353  eV     1   --> B_1  D_3  S_3  
     e(  5 -  5) =      3.08437  eV     1   --> A_1  D_1  S_1  
     e(  6 -  6) =      4.71846  eV     1   --> B_2  D_4  S_4  
     e(  7 -  7) =      5.73499  eV     1   --> A_1  D_1  S_1  
     e(  8 -  8) =      7.98280  eV     1   --> A_1  D_1  S_1  

 **************************************************************************

 **************************************************************************

                    xk=(   0.11250,   0.06495,   0.00000  )

     Band symmetry, C_2v (mm2)  point group:

     e(  1 -  1) =    -19.69644  eV     1   --> A_1  D_1  S_1  
     e(  2 -  2) =     -7.72541  eV     1   --> B_2  D_4  S_4  
     e(  3 -  3) =     -4.63030  eV     1   --> A_1  D_1  S_1  
     e(  4 -  4) =     -4.07488  eV     1   --> B_1  D_3  S_3  
     e(  5 -  5) =      2.98833  eV     1   --> A_1  D_1  S_1  
     e(  6 -  6) =      4.62373  eV     1   --> B_2  D_4  S_4  
     e(  7 -  7) =      5.64066  eV     1   --> A_1  D_1  S_1  
     e(  8 -  8) =      7.98554  eV     1   --> A_1  D_1  S_1  

 **************************************************************************

 **************************************************************************

                    xk=(   0.10000,   0.05774,   0.00000  )

     Band symmetry, C_2v (mm2)  point group:

     e(  1 -  1) =    -19.75918  eV     1   --> A_1  D_1  S_1  
     e(  2 -  2) =     -7.80024  eV     1   --> B_2  D_4  S_4  
     e(  3 -  3) =     -4.40677  eV     1   --> A_1  D_1  S_1  
     e(  4 -  4) =     -3.96329  eV     1   --> B_1  D_3  S_3  
     e(  5 -  5) =      2.90239  eV     1   --> A_1  D_1  S_1  
     e(  6 -  6) =      4.53889  eV     1   --> B_2  D_4  S_4  
     e(  7 -  7) =      5.55623  eV     1   --> A_1  D_1  S_1  
     e(  8 -  8) =      7.98261  eV     1   --> A_1  D_1  S_1  

 **************************************************************************

 **************************************************************************

                    xk=(   0.08750,   0.05052,   0.00000  )

     Band symmetry, C_2v (mm2)  point group:

     e(  1 -  1) =    -19.81457  eV     1   --> A_1  D_1  S_1  
     e(  2 -  2) =     -7.86637  eV     1   --> B_2  D_4  S_4  
     e(  3 -  3) =     -4.20308  eV     1   --> A_1  D_1  S_1  
     e(  4 -  4) =     -3.86023  eV     1   --> B_1  D_3  S_3  
     e(  5 -  5) =      2.82656  eV     1   --> A_1  D_1  S_1  
     e(  6 -  6) =      4.46398  eV     1   --> B_2  D_4  S_4  
     e(  7 -  7) =      5.48174  eV     1   --> A_1  D_1  S_1  
     e(  8 -  8) =      7.97482  eV     1   --> A_1  D_1  S_1  

 **************************************************************************

 **************************************************************************

                    xk=(   0.07500,   0.04330,   0.00000  )

     Band symmetry, C_2v (mm2)  point group:

     e(  1 -  1) =    -19.86260  eV     1   --> A_1  D_1  S_1  
     e(  2 -  2) =     -7.92377  eV     1   --> B_2  D_4  S_4  
     e(  3 -  3) =     -4.02114  eV     1   --> A_1  D_1  S_1  
     e(  4 -  4) =     -3.76710  eV     1   --> B_1  D_3  S_3  
     e(  5 -  5) =      2.76084  eV     1   --> A_1  D_1  S_1  
     e(  6 -  6) =      4.39902  eV     1   --> B_2  D_4  S_4  
     e(  7 -  7) =      5.41718  eV     1   --> A_1  D_1  S_1  
     e(  8 -  8) =      7.96348  eV     1   --> A_1  D_1  S_1  

 **************************************************************************

 **************************************************************************

                    xk=(   0.06250,   0.03608,   0.00000  )

     Band symmetry, C_2v (mm2)  point group:

     e(  1 -  1) =    -19.90327  eV     1   --> A_1  D_1  S_1  
     e(  2 -  2) =     -7.97241  eV     1   --> B_2  D_4  S_4  
     e(  3 -  3) =     -3.86308  eV     1   --> A_1  D_1  S_1  
     e(  4 -  4) =     -3.68536  eV     1   --> B_1  D_3  S_3  
     e(  5 -  5) =      2.70523  eV     1   --> A_1  D_1  S_1  
     e(  6 -  6) =      4.34403  eV     1   --> B_2  D_4  S_4  
     e(  7 -  7) =      5.36255  eV     1   --> A_1  D_1  S_1  
     e(  8 -  8) =      7.94980  eV     1   --> A_1  D_1  S_1  

 **************************************************************************

 **************************************************************************

                    xk=(   0.05000,   0.02887,   0.00000  )

     Band symmetry, C_2v (mm2)  point group:

     e(  1 -  1) =    -19.93655  eV     1   --> A_1  D_1  S_1  
     e(  2 -  2) =     -8.01223  eV     1   --> B_2  D_4  S_4  
     e(  3 -  3) =     -3.73078  eV     1   --> A_1  D_1  S_1  
     e(  4 -  4) =     -3.61633  eV     1   --> B_1  D_3  S_3  
     e(  5 -  5) =      2.65974  eV     1   --> A_1  D_1  S_1  
     e(  6 -  6) =      4.29902  eV     1   --> B_2  D_4  S_4  
     e(  7 -  7) =      5.31787  eV     1   --> A_1  D_1  S_1  
     e(  8 -  8) =      7.93554  eV     1   --> A_1  D_1  S_1  

 **************************************************************************

 **************************************************************************

                    xk=(   0.03750,   0.02165,   0.00000  )

     Band symmetry, C_2v (mm2)  point group:

     e(  1 -  1) =    -19.96245  eV     1   --> A_1  D_1  S_1  
     e(  2 -  2) =     -8.04322  eV     1   --> B_2  D_4  S_4  
     e(  3 -  3) =     -3.62593  eV     1   --> A_1  D_1  S_1  
     e(  4 -  4) =     -3.56123  eV     1   --> B_1  D_3  S_3  
     e(  5 -  5) =      2.62436  eV     1   --> A_1  D_1  S_1  
     e(  6 -  6) =      4.26401  eV     1   --> B_2  D_4  S_4  
     e(  7 -  7) =      5.28312  eV     1   --> A_1  D_1  S_1  
     e(  8 -  8) =      7.92233  eV     1   --> A_1  D_1  S_1  

 **************************************************************************

 **************************************************************************

                    xk=(   0.02500,   0.01443,   0.00000  )

     Band symmetry, C_2v (mm2)  point group:

     e(  1 -  1) =    -19.98095  eV     1   --> A_1  D_1  S_1  
     e(  2 -  2) =     -8.06537  eV     1   --> B_2  D_4  S_4  
     e(  3 -  3) =     -3.54992  eV     1   --> A_1  D_1  S_1  
     e(  4 -  4) =     -3.52108  eV     1   --> B_1  D_3  S_3  
     e(  5 -  5) =      2.59909  eV     1   --> A_1  D_1  S_1  
     e(  6 -  6) =      4.23899  eV     1   --> B_2  D_4  S_4  
     e(  7 -  7) =      5.25831  eV     1   --> A_1  D_1  S_1  
     e(  8 -  8) =      7.91164  eV     1   --> A_1  D_1  S_1  

 **************************************************************************

 **************************************************************************

                    xk=(   0.01250,   0.00722,   0.00000  )

     Band symmetry, C_2v (mm2)  point group:

     e(  1 -  1) =    -19.99205  eV     1   --> A_1  D_1  S_1  
     e(  2 -  2) =     -8.07867  eV     1   --> B_2  D_4  S_4  
     e(  3 -  3) =     -3.50393  eV     1   --> A_1  D_1  S_1  
     e(  4 -  4) =     -3.49669  eV     1   --> B_1  D_3  S_3  
     e(  5 -  5) =      2.58392  eV     1   --> A_1  D_1  S_1  
     e(  6 -  6) =      4.22398  eV     1   --> B_2  D_4  S_4  
     e(  7 -  7) =      5.24342  eV     1   --> A_1  D_1  S_1  
     e(  8 -  8) =      7.90467  eV     1   --> A_1  D_1  S_1  

 **************************************************************************

 **************************************************************************

                    xk=(   0.00000,   0.00000,   0.00000  )

     point group D_6h(6/mmm)
     there are 12 classes
     the character table:

       E     2C6   2C3   C2    3C2'  3C2'' i     2S3   2S6   s_h   3s_d  3s_v 
A_1g   1.00  1.00  1.00  1.00  1.00  1.00  1.00  1.00  1.00  1.00  1.00  1.00
A_2g   1.00  1.00  1.00  1.00 -1.00 -1.00  1.00  1.00  1.00  1.00 -1.00 -1.00
B_1g   1.00 -1.00  1.00 -1.00  1.00 -1.00  1.00 -1.00  1.00 -1.00  1.00 -1.00
B_2g   1.00 -1.00  1.00 -1.00 -1.00  1.00  1.00 -1.00  1.00 -1.00 -1.00  1.00
E_1g   2.00  1.00 -1.00 -2.00  0.00  0.00  2.00  1.00 -1.00 -2.00  0.00  0.00
E_2g   2.00 -1.00 -1.00  2.00  0.00  0.00  2.00 -1.00 -1.00  2.00  0.00  0.00
A_1u   1.00  1.00  1.00  1.00  1.00  1.00 -1.00 -1.00 -1.00 -1.00 -1.00 -1.00
A_2u   1.00  1.00  1.00  1.00 -1.00 -1.00 -1.00 -1.00 -1.00 -1.00  1.00  1.00
B_1u   1.00 -1.00  1.00 -1.00  1.00 -1.00 -1.00  1.00 -1.00  1.00 -1.00  1.00
B_2u   1.00 -1.00  1.00 -1.00 -1.00  1.00 -1.00  1.00 -1.00  1.00  1.00 -1.00
E_1u   2.00  1.00 -1.00 -2.00  0.00  0.00 -2.00 -1.00  1.00  2.00  0.00  0.00
E_2u   2.00 -1.00 -1.00  2.00  0.00  0.00 -2.00  1.00  1.00 -2.00  0.00  0.00

     the symmetry operations in each class and the name of the first element:

     E        1
                                                                 
     2C6      5    6
                                                                 
     2C3      7    8
                                                                 
     C2       2
                                                                 
     3C2'     4   12   11
                                                                 
     3C2''    3    9   10
                                                                 
     i       13
                                                                 
     2S3     17   18
                                                                 
     2S6     19   20
                                                                 
     s_h     14
                                                                 
     3s_d    16   24   23
                                                                 
     3s_v    15   21   22
                                                                 

     Band symmetry, D_6h(6/mmm) point group:

     e(  1 -  1) =    -19.99575  eV     1   --> A_1g           
     e(  2 -  2) =     -8.08310  eV     1   --> A_2u           
     e(  3 -  4) =     -3.48848  eV     2   --> E_2g           
     e(  5 -  5) =      2.57887  eV     1   --> A_1g           
     e(  6 -  6) =      4.21897  eV     1   --> A_2u           
     e(  7 -  7) =      5.23846  eV     1   --> A_1g           
     e(  8 -  8) =      7.90233  eV     1   -->   ?

 **************************************************************************

     BANDS        :      7.37s CPU      7.47s WALL


   This run was terminated on:  17:44:43   4Jun2020            

=------------------------------------------------------------------------------=
   JOB DONE.
=------------------------------------------------------------------------------=
