
     Program PWSCF v.6.5 starts on  4Jun2020 at 17:43:34 

     This program is part of the open-source Quantum ESPRESSO suite
     for quantum simulation of materials; please cite
         "P. Giannozzi et al., J. Phys.:Condens. Matter 21 395502 (2009);
         "P. Giannozzi et al., J. Phys.:Condens. Matter 29 465901 (2017);
          URL http://www.quantum-espresso.org", 
     in publications or presentations arising from this work. More details at
     http://www.quantum-espresso.org/quote

     Serial version
     Reading input from nscf.inp

     Current dimensions of program PWSCF are:
     Max number of different atomic species (ntypx) = 10
     Max number of k-points (npk) =  40000
     Max angular momentum in pseudopotentials (lmaxx) =  3

     Atomic positions and unit cell read from directory:
     ./Gr.save/                                                                                                                                                                                                                                                      

     Program PWSCF v.6.5 starts on  4Jun2020 at 17:43:34 

     This program is part of the open-source Quantum ESPRESSO suite
     for quantum simulation of materials; please cite
         "P. Giannozzi et al., J. Phys.:Condens. Matter 21 395502 (2009);
         "P. Giannozzi et al., J. Phys.:Condens. Matter 29 465901 (2017);
          URL http://www.quantum-espresso.org", 
     in publications or presentations arising from this work. More details at
     http://www.quantum-espresso.org/quote

     Serial version
     Reading input from nscf.inp

     Current dimensions of program PWSCF are:
     Max number of different atomic species (ntypx) = 10
     Max number of k-points (npk) =  40000
     Max angular momentum in pseudopotentials (lmaxx) =  3

     Atomic positions and unit cell read from directory:
     ./Gr.save/                                                                                                                                                                                                                                                      

     Program PWSCF v.6.5 starts on  4Jun2020 at 17:43:34 

     This program is part of the open-source Quantum ESPRESSO suite
     for quantum simulation of materials; please cite
         "P. Giannozzi et al., J. Phys.:Condens. Matter 21 395502 (2009);
         "P. Giannozzi et al., J. Phys.:Condens. Matter 29 465901 (2017);
          URL http://www.quantum-espresso.org", 
     in publications or presentations arising from this work. More details at
     http://www.quantum-espresso.org/quote

     Serial version
     Reading input from nscf.inp

     Current dimensions of program PWSCF are:
     Max number of different atomic species (ntypx) = 10
     Max number of k-points (npk) =  40000
     Max angular momentum in pseudopotentials (lmaxx) =  3

     Atomic positions and unit cell read from directory:
     ./Gr.save/                                                                                                                                                                                                                                                      

     Program PWSCF v.6.5 starts on  4Jun2020 at 17:43:34 

     This program is part of the open-source Quantum ESPRESSO suite
     for quantum simulation of materials; please cite
         "P. Giannozzi et al., J. Phys.:Condens. Matter 21 395502 (2009);
         "P. Giannozzi et al., J. Phys.:Condens. Matter 29 465901 (2017);
          URL http://www.quantum-espresso.org", 
     in publications or presentations arising from this work. More details at
     http://www.quantum-espresso.org/quote

     Serial version
     Reading input from nscf.inp

     Current dimensions of program PWSCF are:
     Max number of different atomic species (ntypx) = 10
     Max number of k-points (npk) =  40000
     Max angular momentum in pseudopotentials (lmaxx) =  3

     Atomic positions and unit cell read from directory:
     ./Gr.save/                                                                                                                                                                                                                                                      

     Program PWSCF v.6.5 starts on  4Jun2020 at 17:43:34 

     This program is part of the open-source Quantum ESPRESSO suite
     for quantum simulation of materials; please cite
         "P. Giannozzi et al., J. Phys.:Condens. Matter 21 395502 (2009);
         "P. Giannozzi et al., J. Phys.:Condens. Matter 29 465901 (2017);
          URL http://www.quantum-espresso.org", 
     in publications or presentations arising from this work. More details at
     http://www.quantum-espresso.org/quote

     Serial version
     Reading input from nscf.inp

     Current dimensions of program PWSCF are:
     Max number of different atomic species (ntypx) = 10
     Max number of k-points (npk) =  40000
     Max angular momentum in pseudopotentials (lmaxx) =  3

     Atomic positions and unit cell read from directory:
     ./Gr.save/                                                                                                                                                                                                                                                      

     Program PWSCF v.6.5 starts on  4Jun2020 at 17:43:34 

     This program is part of the open-source Quantum ESPRESSO suite
     for quantum simulation of materials; please cite
         "P. Giannozzi et al., J. Phys.:Condens. Matter 21 395502 (2009);
         "P. Giannozzi et al., J. Phys.:Condens. Matter 29 465901 (2017);
          URL http://www.quantum-espresso.org", 
     in publications or presentations arising from this work. More details at
     http://www.quantum-espresso.org/quote

     Serial version
     Reading input from nscf.inp

     Current dimensions of program PWSCF are:
     Max number of different atomic species (ntypx) = 10
     Max number of k-points (npk) =  40000
     Max angular momentum in pseudopotentials (lmaxx) =  3

     Atomic positions and unit cell read from directory:
     ./Gr.save/                                                                                                                                                                                                                                                      

     Program PWSCF v.6.5 starts on  4Jun2020 at 17:43:34 

     This program is part of the open-source Quantum ESPRESSO suite
     for quantum simulation of materials; please cite
         "P. Giannozzi et al., J. Phys.:Condens. Matter 21 395502 (2009);
         "P. Giannozzi et al., J. Phys.:Condens. Matter 29 465901 (2017);
          URL http://www.quantum-espresso.org", 
     in publications or presentations arising from this work. More details at
     http://www.quantum-espresso.org/quote

     Serial version
     Reading input from nscf.inp

     Current dimensions of program PWSCF are:
     Max number of different atomic species (ntypx) = 10
     Max number of k-points (npk) =  40000
     Max angular momentum in pseudopotentials (lmaxx) =  3

     Atomic positions and unit cell read from directory:
     ./Gr.save/                                                                                                                                                                                                                                                      

     Program PWSCF v.6.5 starts on  4Jun2020 at 17:43:34 

     This program is part of the open-source Quantum ESPRESSO suite
     for quantum simulation of materials; please cite
         "P. Giannozzi et al., J. Phys.:Condens. Matter 21 395502 (2009);
         "P. Giannozzi et al., J. Phys.:Condens. Matter 29 465901 (2017);
          URL http://www.quantum-espresso.org", 
     in publications or presentations arising from this work. More details at
     http://www.quantum-espresso.org/quote

     Serial version
     Reading input from nscf.inp

     Current dimensions of program PWSCF are:
     Max number of different atomic species (ntypx) = 10
     Max number of k-points (npk) =  40000
     Max angular momentum in pseudopotentials (lmaxx) =  3

     Atomic positions and unit cell read from directory:
     ./Gr.save/                                                                                                                                                                                                                                                      

     Program PWSCF v.6.5 starts on  4Jun2020 at 17:43:34 

     This program is part of the open-source Quantum ESPRESSO suite
     for quantum simulation of materials; please cite
         "P. Giannozzi et al., J. Phys.:Condens. Matter 21 395502 (2009);
         "P. Giannozzi et al., J. Phys.:Condens. Matter 29 465901 (2017);
          URL http://www.quantum-espresso.org", 
     in publications or presentations arising from this work. More details at
     http://www.quantum-espresso.org/quote

     Serial version
     Reading input from nscf.inp

     Current dimensions of program PWSCF are:
     Max number of different atomic species (ntypx) = 10
     Max number of k-points (npk) =  40000
     Max angular momentum in pseudopotentials (lmaxx) =  3

     Atomic positions and unit cell read from directory:
     ./Gr.save/                                                                                                                                                                                                                                                      

     Program PWSCF v.6.5 starts on  4Jun2020 at 17:43:34 

     This program is part of the open-source Quantum ESPRESSO suite
     for quantum simulation of materials; please cite
         "P. Giannozzi et al., J. Phys.:Condens. Matter 21 395502 (2009);
         "P. Giannozzi et al., J. Phys.:Condens. Matter 29 465901 (2017);
          URL http://www.quantum-espresso.org", 
     in publications or presentations arising from this work. More details at
     http://www.quantum-espresso.org/quote

     Serial version
     Reading input from nscf.inp

     Current dimensions of program PWSCF are:
     Max number of different atomic species (ntypx) = 10
     Max number of k-points (npk) =  40000
     Max angular momentum in pseudopotentials (lmaxx) =  3

     Atomic positions and unit cell read from directory:
     ./Gr.save/                                                                                                                                                                                                                                                      










     Message from routine read_upf::
     Pseudo file C.pbe-n-kjpaw_psl.0.1.UPF has been fixed on the fly.
To avoid this message in the future, permanently fix 
 your pseudo files following these instructions: 
https://gitlab.com/QEF/q-e/blob/master/upftools/how_to_fix_upf.md
               file C.pbe-n-kjpaw_psl.0.1.UPF: wavefunction(s)  2P renormalized
     Message from routine read_upf::
     Pseudo file C.pbe-n-kjpaw_psl.0.1.UPF has been fixed on the fly.
To avoid this message in the future, permanently fix 
 your pseudo files following these instructions: 
https://gitlab.com/QEF/q-e/blob/master/upftools/how_to_fix_upf.md
               file C.pbe-n-kjpaw_psl.0.1.UPF: wavefunction(s)  2P renormalized

     G-vector sticks info
     --------------------
     sticks:   dense  smooth     PW     G-vecs:    dense   smooth      PW
     Sum         313     313     97                18051    18051    3157


     Title: 
     Unstrained graphene optimization. 2 atoms fragment. BANDS                  


     bravais-lattice index     =            4
     lattice parameter (alat)  =       4.6531  a.u.
     unit-cell volume          =     354.3310 (a.u.)^3
     number of atoms/cell      =            2
     number of atomic types    =            1
     number of electrons       =         8.00
     number of Kohn-Sham states=            8
     kinetic-energy cutoff     =      52.0000  Ry
     charge density cutoff     =     208.0000  Ry
     Exchange-correlation= SLA PW PBX PBC
                           (   1   4   3   4   0   0   0)

     celldm(1)=   4.653073  celldm(2)=   0.000000  celldm(3)=   4.061244
     celldm(4)=   0.000000  celldm(5)=   0.000000  celldm(6)=   0.000000

     crystal axes: (cart. coord. in units of alat)
               a(1) = (   1.000000   0.000000   0.000000 )  
               a(2) = (  -0.500000   0.866025   0.000000 )  
               a(3) = (   0.000000   0.000000   4.061244 )  

     reciprocal axes: (cart. coord. in units 2 pi/alat)
               b(1) = (  1.000000  0.577350 -0.000000 )  
               b(2) = (  0.000000  1.154701  0.000000 )  
               b(3) = (  0.000000 -0.000000  0.246230 )  


     PseudoPot. # 1 for C  read from file:
     ./C.pbe-n-kjpaw_psl.0.1.UPF
     MD5 check sum: 430fe95172b1e11ef3f8ed03bac87931
     Pseudo is Projector augmented-wave + core cor, Zval =  4.0
     Generated using "atomic" code by A. Dal Corso v.5.0.99 svn rev. 10869
     Shape of augmentation charge: BESSEL
     Using radial grid of 1073 points,  4 beta functions with: 
                l(1) =   0
                l(2) =   0
                l(3) =   1
                l(4) =   1
     Q(r) pseudized with 0 coefficients 


     atomic species   valence    mass     pseudopotential
        C              4.00    12.01100     C ( 1.00)

     24 Sym. Ops., with inversion, found


                                    s                        frac. trans.

      isym =  1     identity                                     

 cryst.   s( 1) = (     1          0          0      )
                  (     0          1          0      )
                  (     0          0          1      )

 cart.    s( 1) = (  1.0000000  0.0000000  0.0000000 )
                  (  0.0000000  1.0000000  0.0000000 )
                  (  0.0000000  0.0000000  1.0000000 )


      isym =  2     180 deg rotation - cart. axis [0,0,1]        

 cryst.   s( 2) = (    -1          0          0      )
                  (     0         -1          0      )
                  (     0          0          1      )

 cart.    s( 2) = ( -1.0000000  0.0000000  0.0000000 )
                  (  0.0000000 -1.0000000  0.0000000 )
                  (  0.0000000  0.0000000  1.0000000 )


      isym =  3     180 deg rotation - cart. axis [0,1,0]        

 cryst.   s( 3) = (    -1          0          0      )
                  (     1          1          0      )
                  (     0          0         -1      )

 cart.    s( 3) = ( -1.0000000  0.0000000  0.0000000 )
                  (  0.0000000  1.0000000  0.0000000 )
                  (  0.0000000  0.0000000 -1.0000000 )


      isym =  4     180 deg rotation - cart. axis [1,0,0]        

 cryst.   s( 4) = (     1          0          0      )
                  (    -1         -1          0      )
                  (     0          0         -1      )

 cart.    s( 4) = (  1.0000000  0.0000000  0.0000000 )
                  (  0.0000000 -1.0000000  0.0000000 )
                  (  0.0000000  0.0000000 -1.0000000 )


      isym =  5      60 deg rotation - cryst. axis [0,0,1]       

 cryst.   s( 5) = (     1          1          0      )
                  (    -1          0          0      )
                  (     0          0          1      )

 cart.    s( 5) = (  0.5000000 -0.8660254  0.0000000 )
                  (  0.8660254  0.5000000  0.0000000 )
                  (  0.0000000  0.0000000  1.0000000 )


      isym =  6      60 deg rotation - cryst. axis [0,0,-1]      

 cryst.   s( 6) = (     0         -1          0      )
                  (     1          1          0      )
                  (     0          0          1      )

 cart.    s( 6) = (  0.5000000  0.8660254  0.0000000 )
                  ( -0.8660254  0.5000000  0.0000000 )
                  (  0.0000000  0.0000000  1.0000000 )


      isym =  7     120 deg rotation - cryst. axis [0,0,1]       

 cryst.   s( 7) = (     0          1          0      )
                  (    -1         -1          0      )
                  (     0          0          1      )

 cart.    s( 7) = ( -0.5000000 -0.8660254  0.0000000 )
                  (  0.8660254 -0.5000000  0.0000000 )
                  (  0.0000000  0.0000000  1.0000000 )


      isym =  8     120 deg rotation - cryst. axis [0,0,-1]      

 cryst.   s( 8) = (    -1         -1          0      )
                  (     1          0          0      )
                  (     0          0          1      )

 cart.    s( 8) = ( -0.5000000  0.8660254  0.0000000 )
                  ( -0.8660254 -0.5000000  0.0000000 )
                  (  0.0000000  0.0000000  1.0000000 )


      isym =  9     180 deg rotation - cryst. axis [1,-1,0]      

 cryst.   s( 9) = (     0         -1          0      )
                  (    -1          0          0      )
                  (     0          0         -1      )

 cart.    s( 9) = (  0.5000000 -0.8660254  0.0000000 )
                  ( -0.8660254 -0.5000000  0.0000000 )
                  (  0.0000000  0.0000000 -1.0000000 )


      isym = 10     180 deg rotation - cryst. axis [2,1,0]       

 cryst.   s(10) = (     1          1          0      )
                  (     0         -1          0      )
                  (     0          0         -1      )

 cart.    s(10) = (  0.5000000  0.8660254  0.0000000 )
                  (  0.8660254 -0.5000000  0.0000000 )
                  (  0.0000000  0.0000000 -1.0000000 )


      isym = 11     180 deg rotation - cryst. axis [0,1,0]       

 cryst.   s(11) = (    -1         -1          0      )
                  (     0          1          0      )
                  (     0          0         -1      )

 cart.    s(11) = ( -0.5000000 -0.8660254  0.0000000 )
                  ( -0.8660254  0.5000000  0.0000000 )
                  (  0.0000000  0.0000000 -1.0000000 )


      isym = 12     180 deg rotation - cryst. axis [1,1,0]       

 cryst.   s(12) = (     0          1          0      )
                  (     1          0          0      )
                  (     0          0         -1      )

 cart.    s(12) = ( -0.5000000  0.8660254  0.0000000 )
                  (  0.8660254  0.5000000  0.0000000 )
                  (  0.0000000  0.0000000 -1.0000000 )


      isym = 13     inversion                                    

 cryst.   s(13) = (    -1          0          0      )
                  (     0         -1          0      )
                  (     0          0         -1      )

 cart.    s(13) = ( -1.0000000  0.0000000  0.0000000 )
                  (  0.0000000 -1.0000000  0.0000000 )
                  (  0.0000000  0.0000000 -1.0000000 )


      isym = 14     inv. 180 deg rotation - cart. axis [0,0,1]   

 cryst.   s(14) = (     1          0          0      )
                  (     0          1          0      )
                  (     0          0         -1      )

 cart.    s(14) = (  1.0000000  0.0000000  0.0000000 )
                  (  0.0000000  1.0000000  0.0000000 )
                  (  0.0000000  0.0000000 -1.0000000 )


      isym = 15     inv. 180 deg rotation - cart. axis [0,1,0]   

 cryst.   s(15) = (     1          0          0      )
                  (    -1         -1          0      )
                  (     0          0          1      )

 cart.    s(15) = (  1.0000000  0.0000000  0.0000000 )
                  (  0.0000000 -1.0000000  0.0000000 )
                  (  0.0000000  0.0000000  1.0000000 )


      isym = 16     inv. 180 deg rotation - cart. axis [1,0,0]   

 cryst.   s(16) = (    -1          0          0      )
                  (     1          1          0      )
                  (     0          0          1      )

 cart.    s(16) = ( -1.0000000  0.0000000  0.0000000 )
                  (  0.0000000  1.0000000  0.0000000 )
                  (  0.0000000  0.0000000  1.0000000 )


      isym = 17     inv.  60 deg rotation - cryst. axis [0,0,1]  

 cryst.   s(17) = (    -1         -1          0      )
                  (     1          0          0      )
                  (     0          0         -1      )

 cart.    s(17) = ( -0.5000000  0.8660254  0.0000000 )
                  ( -0.8660254 -0.5000000  0.0000000 )
                  (  0.0000000  0.0000000 -1.0000000 )


      isym = 18     inv.  60 deg rotation - cryst. axis [0,0,-1] 

 cryst.   s(18) = (     0          1          0      )
                  (    -1         -1          0      )
                  (     0          0         -1      )

 cart.    s(18) = ( -0.5000000 -0.8660254  0.0000000 )
                  (  0.8660254 -0.5000000  0.0000000 )
                  (  0.0000000  0.0000000 -1.0000000 )


      isym = 19     inv. 120 deg rotation - cryst. axis [0,0,1]  

 cryst.   s(19) = (     0         -1          0      )
                  (     1          1          0      )
                  (     0          0         -1      )

 cart.    s(19) = (  0.5000000  0.8660254  0.0000000 )
                  ( -0.8660254  0.5000000  0.0000000 )
                  (  0.0000000  0.0000000 -1.0000000 )


      isym = 20     inv. 120 deg rotation - cryst. axis [0,0,-1] 

 cryst.   s(20) = (     1          1          0      )
                  (    -1          0          0      )
                  (     0          0         -1      )

 cart.    s(20) = (  0.5000000 -0.8660254  0.0000000 )
                  (  0.8660254  0.5000000  0.0000000 )
                  (  0.0000000  0.0000000 -1.0000000 )


      isym = 21     inv. 180 deg rotation - cryst. axis [1,-1,0] 

 cryst.   s(21) = (     0          1          0      )
                  (     1          0          0      )
                  (     0          0          1      )

 cart.    s(21) = ( -0.5000000  0.8660254  0.0000000 )
                  (  0.8660254  0.5000000  0.0000000 )
                  (  0.0000000  0.0000000  1.0000000 )


      isym = 22     inv. 180 deg rotation - cryst. axis [2,1,0]  

 cryst.   s(22) = (    -1         -1          0      )
                  (     0          1          0      )
                  (     0          0          1      )

 cart.    s(22) = ( -0.5000000 -0.8660254  0.0000000 )
                  ( -0.8660254  0.5000000  0.0000000 )
                  (  0.0000000  0.0000000  1.0000000 )


      isym = 23     inv. 180 deg rotation - cryst. axis [0,1,0]  

 cryst.   s(23) = (     1          1          0      )
                  (     0         -1          0      )
                  (     0          0          1      )

 cart.    s(23) = (  0.5000000  0.8660254  0.0000000 )
                  (  0.8660254 -0.5000000  0.0000000 )
                  (  0.0000000  0.0000000  1.0000000 )


      isym = 24     inv. 180 deg rotation - cryst. axis [1,1,0]  

 cryst.   s(24) = (     0         -1          0      )
                  (    -1          0          0      )
                  (     0          0          1      )

 cart.    s(24) = (  0.5000000 -0.8660254  0.0000000 )
                  ( -0.8660254 -0.5000000  0.0000000 )
                  (  0.0000000  0.0000000  1.0000000 )


     point group D_6h(6/mmm)
     there are 12 classes
     the character table:

       E     2C6   2C3   C2    3C2'  3C2'' i     2S3   2S6   s_h   3s_d  3s_v 
A_1g   1.00  1.00  1.00  1.00  1.00  1.00  1.00  1.00  1.00  1.00  1.00  1.00
A_2g   1.00  1.00  1.00  1.00 -1.00 -1.00  1.00  1.00  1.00  1.00 -1.00 -1.00
B_1g   1.00 -1.00  1.00 -1.00  1.00 -1.00  1.00 -1.00  1.00 -1.00  1.00 -1.00
B_2g   1.00 -1.00  1.00 -1.00 -1.00  1.00  1.00 -1.00  1.00 -1.00 -1.00  1.00
E_1g   2.00  1.00 -1.00 -2.00  0.00  0.00  2.00  1.00 -1.00 -2.00  0.00  0.00

E_2g   2.00 -1.00 -1.00  2.00  0.00  0.00  2.00 -1.00 -1.00  2.00  0.00  0.00
A_1u   1.00  1.00  1.00  1.00  1.00  1.00 -1.00 -1.00 -1.00 -1.00 -1.00 -1.00
     G-vector sticks info
     --------------------
     sticks:   dense  smooth     PW     G-vecs:    dense   smooth      PW
     Sum         313     313     97                18051    18051    3157


     Title: 
     Unstrained graphene optimization. 2 atoms fragment. BANDS                  


     bravais-lattice index     =            4
     lattice parameter (alat)  =       4.6531  a.u.
     unit-cell volume          =     354.3310 (a.u.)^3
     number of atoms/cell      =            2
     number of atomic types    =            1
     number of electrons       =         8.00
     number of Kohn-Sham states=            8
     kinetic-energy cutoff     =      52.0000  Ry
     charge density cutoff     =     208.0000  Ry
     Exchange-correlation= SLA PW PBX PBC
                           (   1   4   3   4   0   0   0)

     celldm(1)=   4.653073  celldm(2)=   0.000000  celldm(3)=   4.061244
     celldm(4)=   0.000000  celldm(5)=   0.000000  celldm(6)=   0.000000

     crystal axes: (cart. coord. in units of alat)
               a(1) = (   1.000000   0.000000   0.000000 )  
               a(2) = (  -0.500000   0.866025   0.000000 )  
               a(3) = (   0.000000   0.000000   4.061244 )  

     reciprocal axes: (cart. coord. in units 2 pi/alat)
               b(1) = (  1.000000  0.577350 -0.000000 )  
               b(2) = (  0.000000  1.154701  0.000000 )  
               b(3) = (  0.000000 -0.000000  0.246230 )  


     PseudoPot. # 1 for C  read from file:
     ./C.pbe-n-kjpaw_psl.0.1.UPF
     MD5 check sum: 430fe95172b1e11ef3f8ed03bac87931
     Pseudo is Projector augmented-wave + core cor, Zval =  4.0
     Generated using "atomic" code by A. Dal Corso v.5.0.99 svn rev. 10869
     Shape of augmentation charge: BESSEL
     Using radial grid of 1073 points,  4 beta functions with: 
                l(1) =   0
                l(2) =   0
                l(3) =   1
                l(4) =   1
     Q(r) pseudized with 0 coefficients 


     atomic species   valence    mass     pseudopotential
        C              4.00    12.01100     C ( 1.00)

     24 Sym. Ops., with inversion, found


                                    s                        frac. trans.

      isym =  1     identity                                     

 cryst.   s( 1) = (     1          0          0      )
                  (     0          1          0      )
                  (     0          0          1      )

 cart.    s( 1) = (  1.0000000  0.0000000  0.0000000 )
                  (  0.0000000  1.0000000  0.0000000 )
                  (  0.0000000  0.0000000  1.0000000 )


      isym =  2     180 deg rotation - cart. axis [0,0,1]        

 cryst.   s( 2) = (    -1          0          0      )
                  (     0         -1          0      )
                  (     0          0          1      )

 cart.    s( 2) = ( -1.0000000  0.0000000  0.0000000 )
                  (  0.0000000 -1.0000000  0.0000000 )
                  (  0.0000000  0.0000000  1.0000000 )


      isym =  3     180 deg rotation - cart. axis [0,1,0]        

 cryst.   s( 3) = (    -1          0          0      )
                  (     1          1          0      )
                  (     0          0         -1      )

 cart.    s( 3) = ( -1.0000000  0.0000000  0.0000000 )
                  (  0.0000000  1.0000000  0.0000000 )
                  (  0.0000000  0.0000000 -1.0000000 )


      isym =  4     180 deg rotation - cart. axis [1,0,0]        

 cryst.   s( 4) = (     1          0          0      )
                  (    -1         -1          0      )
                  (     0          0         -1      )

 cart.    s( 4) = (  1.0000000  0.0000000  0.0000000 )
                  (  0.0000000 -1.0000000  0.0000000 )
                  (  0.0000000  0.0000000 -1.0000000 )


      isym =  5      60 deg rotation - cryst. axis [0,0,1]       

 cryst.   s( 5) = (     1          1          0      )
                  (    -1          0          0      )
                  (     0          0          1      )

 cart.    s( 5) = (  0.5000000 -0.8660254  0.0000000 )
                  (  0.8660254  0.5000000  0.0000000 )
                  (  0.0000000  0.0000000  1.0000000 )


      isym =  6      60 deg rotation - cryst. axis [0,0,-1]      

 cryst.   s( 6) = (     0         -1          0      )
                  (     1          1          0      )
                  (     0          0          1      )

 cart.    s( 6) = (  0.5000000  0.8660254  0.0000000 )
                  ( -0.8660254  0.5000000  0.0000000 )
                  (  0.0000000  0.0000000  1.0000000 )


      isym =  7     120 deg rotation - cryst. axis [0,0,1]       

 cryst.   s( 7) = (     0          1          0      )
                  (    -1         -1          0      )
                  (     0          0          1      )

 cart.    s( 7) = ( -0.5000000 -0.8660254  0.0000000 )
                  (  0.8660254 -0.5000000  0.0000000 )
                  (  0.0000000  0.0000000  1.0000000 )


      isym =  8     120 deg rotation - cryst. axis [0,0,-1]      

 cryst.   s( 8) = (    -1         -1          0      )
                  (     1          0          0      )
                  (     0          0          1      )

 cart.    s( 8) = ( -0.5000000  0.8660254  0.0000000 )
                  ( -0.8660254 -0.5000000  0.0000000 )
                  (  0.0000000  0.0000000  1.0000000 )


      isym =  9     180 deg rotation - cryst. axis [1,-1,0]      

 cryst.   s( 9) = (     0         -1          0      )
                  (    -1          0          0      )
                  (     0          0         -1      )

 cart.    s( 9) = (  0.5000000 -0.8660254  0.0000000 )
                  ( -0.8660254 -0.5000000  0.0000000 )
                  (  0.0000000  0.0000000 -1.0000000 )


      isym = 10     180 deg rotation - cryst. axis [2,1,0]       

 cryst.   s(10) = (     1          1          0      )
                  (     0         -1          0      )
                  (     0          0         -1      )

 cart.    s(10) = (  0.5000000  0.8660254  0.0000000 )
                  (  0.8660254 -0.5000000  0.0000000 )
                  (  0.0000000  0.0000000 -1.0000000 )


      isym = 11     180 deg rotation - cryst. axis [0,1,0]       

 cryst.   s(11) = (    -1         -1          0      )
                  (     0          1          0      )
                  (     0          0         -1      )

 cart.    s(11) = ( -0.5000000 -0.8660254  0.0000000 )
                  ( -0.8660254  0.5000000  0.0000000 )
                  (  0.0000000  0.0000000 -1.0000000 )


      isym = 12     180 deg rotation - cryst. axis [1,1,0]       

 cryst.   s(12) = (     0          1          0      )
                  (     1          0          0      )
                  (     0          0         -1      )

 cart.    s(12) = ( -0.5000000  0.8660254  0.0000000 )
                  (  0.8660254  0.5000000  0.0000000 )
                  (  0.0000000  0.0000000 -1.0000000 )


      isym = 13     inversion                                    

 cryst.   s(13) = (    -1          0          0      )
                  (     0         -1          0      )
                  (     0          0         -1      )

 cart.    s(13) = ( -1.0000000  0.0000000  0.0000000 )
                  (  0.0000000 -1.0000000  0.0000000 )
                  (  0.0000000  0.0000000 -1.0000000 )


      isym = 14     inv. 180 deg rotation - cart. axis [0,0,1]   

 cryst.   s(14) = (     1          0          0      )
                  (     0          1          0      )
                  (     0          0         -1      )

 cart.    s(14) = (  1.0000000  0.0000000  0.0000000 )
                  (  0.0000000  1.0000000  0.0000000 )
                  (  0.0000000  0.0000000 -1.0000000 )


      isym = 15     inv. 180 deg rotation - cart. axis [0,1,0]   

 cryst.   s(15) = (     1          0          0      )
                  (    -1         -1          0      )
                  (     0          0          1      )

 cart.    s(15) = (  1.0000000  0.0000000  0.0000000 )
                  (  0.0000000 -1.0000000  0.0000000 )
                  (  0.0000000  0.0000000  1.0000000 )


      isym = 16     inv. 180 deg rotation - cart. axis [1,0,0]   

 cryst.   s(16) = (    -1          0          0      )
                  (     1          1          0      )
                  (     0          0          1      )

 cart.    s(16) = ( -1.0000000  0.0000000  0.0000000 )
                  (  0.0000000  1.0000000  0.0000000 )
                  (  0.0000000  0.0000000  1.0000000 )


      isym = 17     inv.  60 deg rotation - cryst. axis [0,0,1]  

 cryst.   s(17) = (    -1         -1          0      )
                  (     1          0          0      )
                  (     0          0         -1      )

 cart.    s(17) = ( -0.5000000  0.8660254  0.0000000 )
                  ( -0.8660254 -0.5000000  0.0000000 )
                  (  0.0000000  0.0000000 -1.0000000 )


      isym = 18     inv.  60 deg rotation - cryst. axis [0,0,-1] 

 cryst.   s(18) = (     0          1          0      )
                  (    -1         -1          0      )
                  (     0          0         -1      )

 cart.    s(18) = ( -0.5000000 -0.8660254  0.0000000 )
                  (  0.8660254 -0.5000000  0.0000000 )
                  (  0.0000000  0.0000000 -1.0000000 )


      isym = 19     inv. 120 deg rotation - cryst. axis [0,0,1]  

 cryst.   s(19) = (     0         -1          0      )
                  (     1          1          0      )
                  (     0          0         -1      )

 cart.    s(19) = (  0.5000000  0.8660254  0.0000000 )
                  ( -0.8660254  0.5000000  0.0000000 )
                  (  0.0000000  0.0000000 -1.0000000 )


      isym = 20     inv. 120 deg rotation - cryst. axis [0,0,-1] 

 cryst.   s(20) = (     1          1          0      )
                  (    -1          0          0      )
                  (     0          0         -1      )

 cart.    s(20) = (  0.5000000 -0.8660254  0.0000000 )
                  (  0.8660254  0.5000000  0.0000000 )
                  (  0.0000000  0.0000000 -1.0000000 )


      isym = 21     inv. 180 deg rotation - cryst. axis [1,-1,0] 

 cryst.   s(21) = (     0          1          0      )
                  (     1          0          0      )
                  (     0          0          1      )

 cart.    s(21) = ( -0.5000000  0.8660254  0.0000000 )
                  (  0.8660254  0.5000000  0.0000000 )
                  (  0.0000000  0.0000000  1.0000000 )


      isym = 22     inv. 180 deg rotation - cryst. axis [2,1,0]  

 cryst.   s(22) = (    -1         -1          0      )
                  (     0          1          0      )
                  (     0          0          1      )

 cart.    s(22) = ( -0.5000000 -0.8660254  0.0000000 )
                  ( -0.8660254  0.5000000  0.0000000 )
                  (  0.0000000  0.0000000  1.0000000 )


      isym = 23     inv. 180 deg rotation - cryst. axis [0,1,0]  

 cryst.   s(23) = (     1          1          0      )
                  (     0         -1          0      )
                  (     0          0          1      )

 cart.    s(23) = (  0.5000000  0.8660254  0.0000000 )
                  (  0.8660254 -0.5000000  0.0000000 )
                  (  0.0000000  0.0000000  1.0000000 )


      isym = 24     inv. 180 deg rotation - cryst. axis [1,1,0]  

 cryst.   s(24) = (     0         -1          0      )
                  (    -1          0          0      )
                  (     0          0          1      )

 cart.    s(24) = (  0.5000000 -0.8660254  0.0000000 )
                  ( -0.8660254 -0.5000000  0.0000000 )
                  (  0.0000000  0.0000000  1.0000000 )

A_2u   1.00  1.00  1.00  1.00 -1.00 -1.00 -1.00 -1.00 -1.00 -1.00  1.00  1.00
B_1u   1.00 -1.00  1.00 -1.00  1.00 -1.00 -1.00  1.00 -1.00  1.00 -1.00  1.00
B_2u   1.00 -1.00  1.00 -1.00 -1.00  1.00 -1.00  1.00 -1.00  1.00  1.00 -1.00
E_1u   2.00  1.00 -1.00 -2.00  0.00  0.00 -2.00 -1.00  1.00  2.00  0.00  0.00
E_2u   2.00 -1.00 -1.00  2.00  0.00  0.00 -2.00  1.00  1.00 -2.00  0.00  0.00

     the symmetry operations in each class and the name of the first element:

     E        1
          identity                                               
     2C6      5    6
           60 deg rotation - cryst. axis [0,0,1]                 
     2C3      7    8
          120 deg rotation - cryst. axis [0,0,1]                 
     C2       2
          180 deg rotation - cart. axis [0,0,1]                  
     3C2'     4   12   11
          180 deg rotation - cart. axis [1,0,0]                  
     3C2''    3    9   10
          180 deg rotation - cart. axis [0,1,0]                  
     i       13
          inversion                                              
     2S3     17   18
          inv.  60 deg rotation - cryst. axis [0,0,1]            
     2S6     19   20
          inv. 120 deg rotation - cryst. axis [0,0,1]            
     s_h     14
          inv. 180 deg rotation - cart. axis [0,0,1]             
     3s_d    16   24   23
          inv. 180 deg rotation - cart. axis [1,0,0]             
     3s_v    15   21   22
          inv. 180 deg rotation - cart. axis [0,1,0]             

   Cartesian axes

     site n.     atom                  positions (alat units)
         1           C   tau(   1) = (   0.0000000   0.5773503   2.0306218  )
         2           C   tau(   2) = (   0.5000000   0.2886751   2.0306218  )

     point group D_6h(6/mmm)
     there are 12 classes
     the character table:

       E     2C6   2C3   C2    3C2'  3C2'' i     2S3   2S6   s_h   3s_d  3s_v 
A_1g   1.00  1.00  1.00  1.00  1.00  1.00  1.00  1.00  1.00  1.00  1.00  1.00
A_2g   1.00  1.00  1.00  1.00 -1.00 -1.00  1.00  1.00  1.00  1.00 -1.00 -1.00
B_1g   1.00 -1.00  1.00 -1.00  1.00 -1.00  1.00 -1.00  1.00 -1.00  1.00 -1.00
B_2g   1.00 -1.00  1.00 -1.00 -1.00  1.00  1.00 -1.00  1.00 -1.00 -1.00  1.00
E_1g   2.00  1.00 -1.00 -2.00  0.00  0.00  2.00  1.00 -1.00 -2.00  0.00  0.00
E_2g   2.00 -1.00 -1.00  2.00  0.00  0.00  2.00 -1.00 -1.00  2.00  0.00  0.00
A_1u   1.00  1.00  1.00  1.00  1.00  1.00 -1.00 -1.00 -1.00 -1.00 -1.00 -1.00
A_2u   1.00  1.00  1.00  1.00 -1.00 -1.00 -1.00 -1.00 -1.00 -1.00  1.00  1.00
B_1u   1.00 -1.00  1.00 -1.00  1.00 -1.00 -1.00  1.00 -1.00  1.00 -1.00  1.00
B_2u   1.00 -1.00  1.00 -1.00 -1.00  1.00 -1.00  1.00 -1.00  1.00  1.00 -1.00
E_1u   2.00  1.00 -1.00 -2.00  0.00  0.00 -2.00 -1.00  1.00  2.00  0.00  0.00
E_2u   2.00 -1.00 -1.00  2.00  0.00  0.00 -2.00  1.00  1.00 -2.00  0.00  0.00

     the symmetry operations in each class and the name of the first element:

     E        1
          identity                                               
     2C6      5    6
           60 deg rotation - cryst. axis [0,0,1]                 
     2C3      7    8
          120 deg rotation - cryst. axis [0,0,1]                 
     C2       2
          180 deg rotation - cart. axis [0,0,1]                  
     3C2'     4   12   11
          180 deg rotation - cart. axis [1,0,0]                  
     3C2''    3    9   10
          180 deg rotation - cart. axis [0,1,0]                  
     i       13
          inversion                                              
     2S3     17   18
          inv.  60 deg rotation - cryst. axis [0,0,1]            
     2S6     19   20
          inv. 120 deg rotation - cryst. axis [0,0,1]            
     s_h     14
          inv. 180 deg rotation - cart. axis [0,0,1]             
     3s_d    16   24   23
          inv. 180 deg rotation - cart. axis [1,0,0]             
     3s_v    15   21   22
          inv. 180 deg rotation - cart. axis [0,1,0]             

   Cartesian axes

     site n.     atom                  positions (alat units)
         1           C   tau(   1) = (   0.0000000   0.5773503   2.0306218  )
         2           C   tau(   2) = (   0.5000000   0.2886751   2.0306218  )

   Crystallographic axes

     site n.     atom                  positions (cryst. coord.)
         1           C   tau(   1) = (  0.3333333  0.6666667  0.5000000  )
         2           C   tau(   2) = (  0.6666667  0.3333333  0.5000000  )

     number of k points=   101  Methfessel-Paxton smearing, width (Ry)=  0.0200
                       cart. coord. in units 2pi/alat
        k(    1) = (   0.0000000   0.0000000   0.0000000), wk =   0.0198020
        k(    2) = (   0.0166667   0.0000000   0.0000000), wk =   0.0198020
        k(    3) = (   0.0333333   0.0000000   0.0000000), wk =   0.0198020
        k(    4) = (   0.0500000   0.0000000   0.0000000), wk =   0.0198020
        k(    5) = (   0.0666667   0.0000000   0.0000000), wk =   0.0198020
        k(    6) = (   0.0833333   0.0000000   0.0000000), wk =   0.0198020
        k(    7) = (   0.1000000   0.0000000   0.0000000), wk =   0.0198020
        k(    8) = (   0.1166667   0.0000000   0.0000000), wk =   0.0198020
        k(    9) = (   0.1333333   0.0000000   0.0000000), wk =   0.0198020
        k(   10) = (   0.1500000   0.0000000   0.0000000), wk =   0.0198020
        k(   11) = (   0.1666667   0.0000000   0.0000000), wk =   0.0198020
        k(   12) = (   0.1833333   0.0000000   0.0000000), wk =   0.0198020
        k(   13) = (   0.2000000   0.0000000   0.0000000), wk =   0.0198020
        k(   14) = (   0.2166667   0.0000000   0.0000000), wk =   0.0198020
        k(   15) = (   0.2333333   0.0000000   0.0000000), wk =   0.0198020
        k(   16) = (   0.2500000   0.0000000   0.0000000), wk =   0.0198020
        k(   17) = (   0.2666667   0.0000000   0.0000000), wk =   0.0198020
        k(   18) = (   0.2833333   0.0000000   0.0000000), wk =   0.0198020
        k(   19) = (   0.3000000   0.0000000   0.0000000), wk =   0.0198020
        k(   20) = (   0.3166667   0.0000000   0.0000000), wk =   0.0198020
        k(   21) = (   0.3333333   0.0000000   0.0000000), wk =   0.0198020
        k(   22) = (   0.3500000   0.0000000   0.0000000), wk =   0.0198020
        k(   23) = (   0.3666667   0.0000000   0.0000000), wk =   0.0198020
        k(   24) = (   0.3833333   0.0000000   0.0000000), wk =   0.0198020
        k(   25) = (   0.4000000   0.0000000   0.0000000), wk =   0.0198020
        k(   26) = (   0.4166667   0.0000000   0.0000000), wk =   0.0198020
        k(   27) = (   0.4333333   0.0000000   0.0000000), wk =   0.0198020
        k(   28) = (   0.4500000   0.0000000   0.0000000), wk =   0.0198020
        k(   29) = (   0.4666667   0.0000000   0.0000000), wk =   0.0198020
        k(   30) = (   0.4833333   0.0000000   0.0000000), wk =   0.0198020
        k(   31) = (   0.5000000   0.0000000   0.0000000), wk =   0.0198020
        k(   32) = (   0.5166667   0.0000000   0.0000000), wk =   0.0198020
        k(   33) = (   0.5333333   0.0000000   0.0000000), wk =   0.0198020
        k(   34) = (   0.5500000   0.0000000   0.0000000), wk =   0.0198020
        k(   35) = (   0.5666667   0.0000000   0.0000000), wk =   0.0198020
        k(   36) = (   0.5833333   0.0000000   0.0000000), wk =   0.0198020
        k(   37) = (   0.6000000   0.0000000   0.0000000), wk =   0.0198020
        k(   38) = (   0.6166667   0.0000000   0.0000000), wk =   0.0198020
        k(   39) = (   0.6333333   0.0000000   0.0000000), wk =   0.0198020
        k(   40) = (   0.6500000   0.0000000   0.0000000), wk =   0.0198020
        k(   41) = (   0.6666667   0.0000000   0.0000000), wk =   0.0198020
        k(   42) = (   0.6583333   0.0144338   0.0000000), wk =   0.0198020
        k(   43) = (   0.6500000   0.0288675   0.0000000), wk =   0.0198020
        k(   44) = (   0.6416667   0.0433013   0.0000000), wk =   0.0198020
        k(   45) = (   0.6333333   0.0577350   0.0000000), wk =   0.0198020
        k(   46) = (   0.6250000   0.0721688   0.0000000), wk =   0.0198020
        k(   47) = (   0.6166667   0.0866025   0.0000000), wk =   0.0198020
        k(   48) = (   0.6083333   0.1010363   0.0000000), wk =   0.0198020
        k(   49) = (   0.6000000   0.1154701   0.0000000), wk =   0.0198020
        k(   50) = (   0.5916667   0.1299038   0.0000000), wk =   0.0198020
        k(   51) = (   0.5833333   0.1443376   0.0000000), wk =   0.0198020
        k(   52) = (   0.5750000   0.1587713   0.0000000), wk =   0.0198020
        k(   53) = (   0.5666667   0.1732051   0.0000000), wk =   0.0198020
        k(   54) = (   0.5583333   0.1876388   0.0000000), wk =   0.0198020
        k(   55) = (   0.5500000   0.2020726   0.0000000), wk =   0.0198020
        k(   56) = (   0.5416667   0.2165064   0.0000000), wk =   0.0198020
        k(   57) = (   0.5333333   0.2309401   0.0000000), wk =   0.0198020
        k(   58) = (   0.5250000   0.2453739   0.0000000), wk =   0.0198020
        k(   59) = (   0.5166667   0.2598076   0.0000000), wk =   0.0198020
        k(   60) = (   0.5083333   0.2742414   0.0000000), wk =   0.0198020
        k(   61) = (   0.5000000   0.2886751   0.0000000), wk =   0.0198020
        k(   62) = (   0.4875000   0.2814583   0.0000000), wk =   0.0198020
        k(   63) = (   0.4750000   0.2742414   0.0000000), wk =   0.0198020
        k(   64) = (   0.4625000   0.2670245   0.0000000), wk =   0.0198020
        k(   65) = (   0.4500000   0.2598076   0.0000000), wk =   0.0198020
        k(   66) = (   0.4375000   0.2525907   0.0000000), wk =   0.0198020
        k(   67) = (   0.4250000   0.2453739   0.0000000), wk =   0.0198020
        k(   68) = (   0.4125000   0.2381570   0.0000000), wk =   0.0198020
        k(   69) = (   0.4000000   0.2309401   0.0000000), wk =   0.0198020
        k(   70) = (   0.3875000   0.2237232   0.0000000), wk =   0.0198020
        k(   71) = (   0.3750000   0.2165064   0.0000000), wk =   0.0198020
        k(   72) = (   0.3625000   0.2092895   0.0000000), wk =   0.0198020
        k(   73) = (   0.3500000   0.2020726   0.0000000), wk =   0.0198020
        k(   74) = (   0.3375000   0.1948557   0.0000000), wk =   0.0198020
        k(   75) = (   0.3250000   0.1876388   0.0000000), wk =   0.0198020
        k(   76) = (   0.3125000   0.1804220   0.0000000), wk =   0.0198020
        k(   77) = (   0.3000000   0.1732051   0.0000000), wk =   0.0198020
        k(   78) = (   0.2875000   0.1659882   0.0000000), wk =   0.0198020
        k(   79) = (   0.2750000   0.1587713   0.0000000), wk =   0.0198020
        k(   80) = (   0.2625000   0.1515544   0.0000000), wk =   0.0198020
        k(   81) = (   0.2500000   0.1443376   0.0000000), wk =   0.0198020
        k(   82) = (   0.2375000   0.1371207   0.0000000), wk =   0.0198020
        k(   83) = (   0.2250000   0.1299038   0.0000000), wk =   0.0198020
        k(   84) = (   0.2125000   0.1226869   0.0000000), wk =   0.0198020
        k(   85) = (   0.2000000   0.1154701   0.0000000), wk =   0.0198020
        k(   86) = (   0.1875000   0.1082532   0.0000000), wk =   0.0198020
        k(   87) = (   0.1750000   0.1010363   0.0000000), wk =   0.0198020
        k(   88) = (   0.1625000   0.0938194   0.0000000), wk =   0.0198020
        k(   89) = (   0.1500000   0.0866025   0.0000000), wk =   0.0198020
        k(   90) = (   0.1375000   0.0793857   0.0000000), wk =   0.0198020
        k(   91) = (   0.1250000   0.0721688   0.0000000), wk =   0.0198020
        k(   92) = (   0.1125000   0.0649519   0.0000000), wk =   0.0198020
        k(   93) = (   0.1000000   0.0577350   0.0000000), wk =   0.0198020
        k(   94) = (   0.0875000   0.0505181   0.0000000), wk =   0.0198020
        k(   95) = (   0.0750000   0.0433013   0.0000000), wk =   0.0198020
        k(   96) = (   0.0625000   0.0360844   0.0000000), wk =   0.0198020
        k(   97) = (   0.0500000   0.0288675   0.0000000), wk =   0.0198020
        k(   98) = (   0.0375000   0.0216506   0.0000000), wk =   0.0198020
        k(   99) = (   0.0250000   0.0144338   0.0000000), wk =   0.0198020
        k(  100) = (   0.0125000   0.0072169   0.0000000), wk =   0.0198020
        k(  101) = (   0.0000000   0.0000000   0.0000000), wk =   0.0198020

                       cryst. coord.
        k(    1) = (   0.0000000   0.0000000   0.0000000), wk =   0.0198020
        k(    2) = (   0.0166667  -0.0083333   0.0000000), wk =   0.0198020
        k(    3) = (   0.0333333  -0.0166667   0.0000000), wk =   0.0198020
        k(    4) = (   0.0500000  -0.0250000   0.0000000), wk =   0.0198020
        k(    5) = (   0.0666667  -0.0333333   0.0000000), wk =   0.0198020
        k(    6) = (   0.0833333  -0.0416667   0.0000000), wk =   0.0198020
        k(    7) = (   0.1000000  -0.0500000   0.0000000), wk =   0.0198020
        k(    8) = (   0.1166667  -0.0583333   0.0000000), wk =   0.0198020
        k(    9) = (   0.1333333  -0.0666667   0.0000000), wk =   0.0198020
        k(   10) = (   0.1500000  -0.0750000   0.0000000), wk =   0.0198020
        k(   11) = (   0.1666667  -0.0833333   0.0000000), wk =   0.0198020
        k(   12) = (   0.1833333  -0.0916667   0.0000000), wk =   0.0198020
        k(   13) = (   0.2000000  -0.1000000   0.0000000), wk =   0.0198020
        k(   14) = (   0.2166667  -0.1083333   0.0000000), wk =   0.0198020
        k(   15) = (   0.2333333  -0.1166667   0.0000000), wk =   0.0198020
        k(   16) = (   0.2500000  -0.1250000   0.0000000), wk =   0.0198020
        k(   17) = (   0.2666667  -0.1333333   0.0000000), wk =   0.0198020
        k(   18) = (   0.2833333  -0.1416667   0.0000000), wk =   0.0198020
        k(   19) = (   0.3000000  -0.1500000   0.0000000), wk =   0.0198020
        k(   20) = (   0.3166667  -0.1583333   0.0000000), wk =   0.0198020
        k(   21) = (   0.3333333  -0.1666667   0.0000000), wk =   0.0198020
        k(   22) = (   0.3500000  -0.1750000   0.0000000), wk =   0.0198020
        k(   23) = (   0.3666667  -0.1833333   0.0000000), wk =   0.0198020
        k(   24) = (   0.3833333  -0.1916667   0.0000000), wk =   0.0198020
        k(   25) = (   0.4000000  -0.2000000   0.0000000), wk =   0.0198020
        k(   26) = (   0.4166667  -0.2083333   0.0000000), wk =   0.0198020
        k(   27) = (   0.4333333  -0.2166667   0.0000000), wk =   0.0198020
        k(   28) = (   0.4500000  -0.2250000   0.0000000), wk =   0.0198020
        k(   29) = (   0.4666667  -0.2333333   0.0000000), wk =   0.0198020
        k(   30) = (   0.4833333  -0.2416667   0.0000000), wk =   0.0198020
        k(   31) = (   0.5000000  -0.2500000   0.0000000), wk =   0.0198020
        k(   32) = (   0.5166667  -0.2583333   0.0000000), wk =   0.0198020
        k(   33) = (   0.5333333  -0.2666667   0.0000000), wk =   0.0198020
        k(   34) = (   0.5500000  -0.2750000   0.0000000), wk =   0.0198020
        k(   35) = (   0.5666667  -0.2833333   0.0000000), wk =   0.0198020
        k(   36) = (   0.5833333  -0.2916667   0.0000000), wk =   0.0198020
        k(   37) = (   0.6000000  -0.3000000   0.0000000), wk =   0.0198020
        k(   38) = (   0.6166667  -0.3083333   0.0000000), wk =   0.0198020
        k(   39) = (   0.6333333  -0.3166667   0.0000000), wk =   0.0198020
        k(   40) = (   0.6500000  -0.3250000   0.0000000), wk =   0.0198020
        k(   41) = (   0.6666667  -0.3333333   0.0000000), wk =   0.0198020
        k(   42) = (   0.6583333  -0.3166667   0.0000000), wk =   0.0198020
        k(   43) = (   0.6500000  -0.3000000   0.0000000), wk =   0.0198020
        k(   44) = (   0.6416667  -0.2833333   0.0000000), wk =   0.0198020
        k(   45) = (   0.6333333  -0.2666667   0.0000000), wk =   0.0198020
        k(   46) = (   0.6250000  -0.2500000   0.0000000), wk =   0.0198020
        k(   47) = (   0.6166667  -0.2333333   0.0000000), wk =   0.0198020
        k(   48) = (   0.6083333  -0.2166667   0.0000000), wk =   0.0198020
        k(   49) = (   0.6000000  -0.2000000   0.0000000), wk =   0.0198020
        k(   50) = (   0.5916667  -0.1833333   0.0000000), wk =   0.0198020
        k(   51) = (   0.5833333  -0.1666667   0.0000000), wk =   0.0198020
        k(   52) = (   0.5750000  -0.1500000   0.0000000), wk =   0.0198020
        k(   53) = (   0.5666667  -0.1333333   0.0000000), wk =   0.0198020
        k(   54) = (   0.5583333  -0.1166667   0.0000000), wk =   0.0198020
        k(   55) = (   0.5500000  -0.1000000   0.0000000), wk =   0.0198020
        k(   56) = (   0.5416667  -0.0833333   0.0000000), wk =   0.0198020
        k(   57) = (   0.5333333  -0.0666667   0.0000000), wk =   0.0198020
        k(   58) = (   0.5250000  -0.0500000   0.0000000), wk =   0.0198020
        k(   59) = (   0.5166667  -0.0333333   0.0000000), wk =   0.0198020
        k(   60) = (   0.5083333  -0.0166667   0.0000000), wk =   0.0198020
        k(   61) = (   0.5000000   0.0000000   0.0000000), wk =   0.0198020
        k(   62) = (   0.4875000   0.0000000   0.0000000), wk =   0.0198020
        k(   63) = (   0.4750000   0.0000000   0.0000000), wk =   0.0198020
        k(   64) = (   0.4625000   0.0000000   0.0000000), wk =   0.0198020
        k(   65) = (   0.4500000   0.0000000   0.0000000), wk =   0.0198020
        k(   66) = (   0.4375000   0.0000000   0.0000000), wk =   0.0198020
        k(   67) = (   0.4250000   0.0000000   0.0000000), wk =   0.0198020
        k(   68) = (   0.4125000   0.0000000   0.0000000), wk =   0.0198020
        k(   69) = (   0.4000000   0.0000000   0.0000000), wk =   0.0198020
        k(   70) = (   0.3875000   0.0000000   0.0000000), wk =   0.0198020
        k(   71) = (   0.3750000   0.0000000   0.0000000), wk =   0.0198020
        k(   72) = (   0.3625000   0.0000000   0.0000000), wk =   0.0198020
        k(   73) = (   0.3500000   0.0000000   0.0000000), wk =   0.0198020
        k(   74) = (   0.3375000   0.0000000   0.0000000), wk =   0.0198020
        k(   75) = (   0.3250000   0.0000000   0.0000000), wk =   0.0198020
        k(   76) = (   0.3125000   0.0000000   0.0000000), wk =   0.0198020
        k(   77) = (   0.3000000   0.0000000   0.0000000), wk =   0.0198020
        k(   78) = (   0.2875000   0.0000000   0.0000000), wk =   0.0198020
        k(   79) = (   0.2750000   0.0000000   0.0000000), wk =   0.0198020
        k(   80) = (   0.2625000   0.0000000   0.0000000), wk =   0.0198020
        k(   81) = (   0.2500000   0.0000000   0.0000000), wk =   0.0198020
        k(   82) = (   0.2375000   0.0000000   0.0000000), wk =   0.0198020
        k(   83) = (   0.2250000   0.0000000   0.0000000), wk =   0.0198020
        k(   84) = (   0.2125000   0.0000000   0.0000000), wk =   0.0198020
        k(   85) = (   0.2000000   0.0000000   0.0000000), wk =   0.0198020
        k(   86) = (   0.1875000   0.0000000   0.0000000), wk =   0.0198020
        k(   87) = (   0.1750000   0.0000000   0.0000000), wk =   0.0198020
        k(   88) = (   0.1625000   0.0000000   0.0000000), wk =   0.0198020
        k(   89) = (   0.1500000   0.0000000   0.0000000), wk =   0.0198020
        k(   90) = (   0.1375000   0.0000000   0.0000000), wk =   0.0198020
        k(   91) = (   0.1250000   0.0000000   0.0000000), wk =   0.0198020
        k(   92) = (   0.1125000   0.0000000   0.0000000), wk =   0.0198020
        k(   93) = (   0.1000000   0.0000000   0.0000000), wk =   0.0198020
        k(   94) = (   0.0875000   0.0000000   0.0000000), wk =   0.0198020
        k(   95) = (   0.0750000   0.0000000   0.0000000), wk =   0.0198020
        k(   96) = (   0.0625000   0.0000000   0.0000000), wk =   0.0198020
        k(   97) = (   0.0500000   0.0000000   0.0000000), wk =   0.0198020
        k(   98) = (   0.0375000   0.0000000   0.0000000), wk =   0.0198020
        k(   99) = (   0.0250000   0.0000000   0.0000000), wk =   0.0198020
        k(  100) = (   0.0125000   0.0000000   0.0000000), wk =   0.0198020
        k(  101) = (   0.0000000   0.0000000   0.0000000), wk =   0.0198020

     Dense  grid:    18051 G-vectors     FFT dimensions: (  24,  24,  90)

     Dynamical RAM for                 wfc:       0.27 MB

     Dynamical RAM for     wfc (w. buffer):       0.27 MB

     Dynamical RAM for           str. fact:       0.28 MB

     Dynamical RAM for           local pot:       0.00 MB

     Dynamical RAM for          nlocal pot:       0.55 MB

     Dynamical RAM for                qrad:       0.25 MB

     Dynamical RAM for          rho,v,vnew:       2.01 MB

     Dynamical RAM for           G-vectors:       1.17 MB

     Dynamical RAM for          h,s,v(r/c):       0.05 MB

     Dynamical RAM for          <psi|beta>:       0.00 MB

     Dynamical RAM for                 psi:       1.10 MB

     Dynamical RAM for                hpsi:       1.10 MB

     Dynamical RAM for                spsi:       1.10 MB

     Dynamical RAM for      wfcinit/wfcrot:       0.55 MB

     Dynamical RAM for           addusdens:      12.39 MB

     Estimated static dynamical RAM per process >       7.05 MB

     Estimated max dynamical RAM per process >      19.45 MB

   Crystallographic axes

     site n.     atom                  positions (cryst. coord.)
         1           C   tau(   1) = (  0.3333333  0.6666667  0.5000000  )
         2           C   tau(   2) = (  0.6666667  0.3333333  0.5000000  )

     number of k points=   101  Methfessel-Paxton smearing, width (Ry)=  0.0200
                       cart. coord. in units 2pi/alat
        k(    1) = (   0.0000000   0.0000000   0.0000000), wk =   0.0198020
        k(    2) = (   0.0166667   0.0000000   0.0000000), wk =   0.0198020
        k(    3) = (   0.0333333   0.0000000   0.0000000), wk =   0.0198020
        k(    4) = (   0.0500000   0.0000000   0.0000000), wk =   0.0198020
        k(    5) = (   0.0666667   0.0000000   0.0000000), wk =   0.0198020
        k(    6) = (   0.0833333   0.0000000   0.0000000), wk =   0.0198020
        k(    7) = (   0.1000000   0.0000000   0.0000000), wk =   0.0198020
        k(    8) = (   0.1166667   0.0000000   0.0000000), wk =   0.0198020
        k(    9) = (   0.1333333   0.0000000   0.0000000), wk =   0.0198020
        k(   10) = (   0.1500000   0.0000000   0.0000000), wk =   0.0198020
        k(   11) = (   0.1666667   0.0000000   0.0000000), wk =   0.0198020
        k(   12) = (   0.1833333   0.0000000   0.0000000), wk =   0.0198020
        k(   13) = (   0.2000000   0.0000000   0.0000000), wk =   0.0198020
        k(   14) = (   0.2166667   0.0000000   0.0000000), wk =   0.0198020
        k(   15) = (   0.2333333   0.0000000   0.0000000), wk =   0.0198020
        k(   16) = (   0.2500000   0.0000000   0.0000000), wk =   0.0198020
        k(   17) = (   0.2666667   0.0000000   0.0000000), wk =   0.0198020
        k(   18) = (   0.2833333   0.0000000   0.0000000), wk =   0.0198020
        k(   19) = (   0.3000000   0.0000000   0.0000000), wk =   0.0198020
        k(   20) = (   0.3166667   0.0000000   0.0000000), wk =   0.0198020
        k(   21) = (   0.3333333   0.0000000   0.0000000), wk =   0.0198020
        k(   22) = (   0.3500000   0.0000000   0.0000000), wk =   0.0198020
        k(   23) = (   0.3666667   0.0000000   0.0000000), wk =   0.0198020
        k(   24) = (   0.3833333   0.0000000   0.0000000), wk =   0.0198020
        k(   25) = (   0.4000000   0.0000000   0.0000000), wk =   0.0198020
        k(   26) = (   0.4166667   0.0000000   0.0000000), wk =   0.0198020
        k(   27) = (   0.4333333   0.0000000   0.0000000), wk =   0.0198020
        k(   28) = (   0.4500000   0.0000000   0.0000000), wk =   0.0198020
        k(   29) = (   0.4666667   0.0000000   0.0000000), wk =   0.0198020
        k(   30) = (   0.4833333   0.0000000   0.0000000), wk =   0.0198020
        k(   31) = (   0.5000000   0.0000000   0.0000000), wk =   0.0198020
        k(   32) = (   0.5166667   0.0000000   0.0000000), wk =   0.0198020
        k(   33) = (   0.5333333   0.0000000   0.0000000), wk =   0.0198020
        k(   34) = (   0.5500000   0.0000000   0.0000000), wk =   0.0198020
        k(   35) = (   0.5666667   0.0000000   0.0000000), wk =   0.0198020
        k(   36) = (   0.5833333   0.0000000   0.0000000), wk =   0.0198020
        k(   37) = (   0.6000000   0.0000000   0.0000000), wk =   0.0198020
        k(   38) = (   0.6166667   0.0000000   0.0000000), wk =   0.0198020
        k(   39) = (   0.6333333   0.0000000   0.0000000), wk =   0.0198020
        k(   40) = (   0.6500000   0.0000000   0.0000000), wk =   0.0198020
        k(   41) = (   0.6666667   0.0000000   0.0000000), wk =   0.0198020
        k(   42) = (   0.6583333   0.0144338   0.0000000), wk =   0.0198020
        k(   43) = (   0.6500000   0.0288675   0.0000000), wk =   0.0198020
        k(   44) = (   0.6416667   0.0433013   0.0000000), wk =   0.0198020
        k(   45) = (   0.6333333   0.0577350   0.0000000), wk =   0.0198020
        k(   46) = (   0.6250000   0.0721688   0.0000000), wk =   0.0198020
        k(   47) = (   0.6166667   0.0866025   0.0000000), wk =   0.0198020
        k(   48) = (   0.6083333   0.1010363   0.0000000), wk =   0.0198020
        k(   49) = (   0.6000000   0.1154701   0.0000000), wk =   0.0198020
        k(   50) = (   0.5916667   0.1299038   0.0000000), wk =   0.0198020
        k(   51) = (   0.5833333   0.1443376   0.0000000), wk =   0.0198020
        k(   52) = (   0.5750000   0.1587713   0.0000000), wk =   0.0198020
        k(   53) = (   0.5666667   0.1732051   0.0000000), wk =   0.0198020
        k(   54) = (   0.5583333   0.1876388   0.0000000), wk =   0.0198020
        k(   55) = (   0.5500000   0.2020726   0.0000000), wk =   0.0198020
        k(   56) = (   0.5416667   0.2165064   0.0000000), wk =   0.0198020
        k(   57) = (   0.5333333   0.2309401   0.0000000), wk =   0.0198020
        k(   58) = (   0.5250000   0.2453739   0.0000000), wk =   0.0198020
        k(   59) = (   0.5166667   0.2598076   0.0000000), wk =   0.0198020
        k(   60) = (   0.5083333   0.2742414   0.0000000), wk =   0.0198020
        k(   61) = (   0.5000000   0.2886751   0.0000000), wk =   0.0198020
        k(   62) = (   0.4875000   0.2814583   0.0000000), wk =   0.0198020
        k(   63) = (   0.4750000   0.2742414   0.0000000), wk =   0.0198020
        k(   64) = (   0.4625000   0.2670245   0.0000000), wk =   0.0198020
        k(   65) = (   0.4500000   0.2598076   0.0000000), wk =   0.0198020
        k(   66) = (   0.4375000   0.2525907   0.0000000), wk =   0.0198020
        k(   67) = (   0.4250000   0.2453739   0.0000000), wk =   0.0198020
        k(   68) = (   0.4125000   0.2381570   0.0000000), wk =   0.0198020
        k(   69) = (   0.4000000   0.2309401   0.0000000), wk =   0.0198020
        k(   70) = (   0.3875000   0.2237232   0.0000000), wk =   0.0198020
        k(   71) = (   0.3750000   0.2165064   0.0000000), wk =   0.0198020
        k(   72) = (   0.3625000   0.2092895   0.0000000), wk =   0.0198020
        k(   73) = (   0.3500000   0.2020726   0.0000000), wk =   0.0198020
        k(   74) = (   0.3375000   0.1948557   0.0000000), wk =   0.0198020
        k(   75) = (   0.3250000   0.1876388   0.0000000), wk =   0.0198020
        k(   76) = (   0.3125000   0.1804220   0.0000000), wk =   0.0198020
        k(   77) = (   0.3000000   0.1732051   0.0000000), wk =   0.0198020
        k(   78) = (   0.2875000   0.1659882   0.0000000), wk =   0.0198020
        k(   79) = (   0.2750000   0.1587713   0.0000000), wk =   0.0198020
        k(   80) = (   0.2625000   0.1515544   0.0000000), wk =   0.0198020
        k(   81) = (   0.2500000   0.1443376   0.0000000), wk =   0.0198020
        k(   82) = (   0.2375000   0.1371207   0.0000000), wk =   0.0198020
        k(   83) = (   0.2250000   0.1299038   0.0000000), wk =   0.0198020
        k(   84) = (   0.2125000   0.1226869   0.0000000), wk =   0.0198020
        k(   85) = (   0.2000000   0.1154701   0.0000000), wk =   0.0198020
        k(   86) = (   0.1875000   0.1082532   0.0000000), wk =   0.0198020
        k(   87) = (   0.1750000   0.1010363   0.0000000), wk =   0.0198020
        k(   88) = (   0.1625000   0.0938194   0.0000000), wk =   0.0198020
        k(   89) = (   0.1500000   0.0866025   0.0000000), wk =   0.0198020
        k(   90) = (   0.1375000   0.0793857   0.0000000), wk =   0.0198020
        k(   91) = (   0.1250000   0.0721688   0.0000000), wk =   0.0198020
        k(   92) = (   0.1125000   0.0649519   0.0000000), wk =   0.0198020
        k(   93) = (   0.1000000   0.0577350   0.0000000), wk =   0.0198020
        k(   94) = (   0.0875000   0.0505181   0.0000000), wk =   0.0198020
        k(   95) = (   0.0750000   0.0433013   0.0000000), wk =   0.0198020
        k(   96) = (   0.0625000   0.0360844   0.0000000), wk =   0.0198020
        k(   97) = (   0.0500000   0.0288675   0.0000000), wk =   0.0198020
        k(   98) = (   0.0375000   0.0216506   0.0000000), wk =   0.0198020
        k(   99) = (   0.0250000   0.0144338   0.0000000), wk =   0.0198020
        k(  100) = (   0.0125000   0.0072169   0.0000000), wk =   0.0198020
        k(  101) = (   0.0000000   0.0000000   0.0000000), wk =   0.0198020

                       cryst. coord.
        k(    1) = (   0.0000000   0.0000000   0.0000000), wk =   0.0198020
        k(    2) = (   0.0166667  -0.0083333   0.0000000), wk =   0.0198020
        k(    3) = (   0.0333333  -0.0166667   0.0000000), wk =   0.0198020
        k(    4) = (   0.0500000  -0.0250000   0.0000000), wk =   0.0198020
        k(    5) = (   0.0666667  -0.0333333   0.0000000), wk =   0.0198020
        k(    6) = (   0.0833333  -0.0416667   0.0000000), wk =   0.0198020
        k(    7) = (   0.1000000  -0.0500000   0.0000000), wk =   0.0198020
        k(    8) = (   0.1166667  -0.0583333   0.0000000), wk =   0.0198020
        k(    9) = (   0.1333333  -0.0666667   0.0000000), wk =   0.0198020
        k(   10) = (   0.1500000  -0.0750000   0.0000000), wk =   0.0198020
        k(   11) = (   0.1666667  -0.0833333   0.0000000), wk =   0.0198020
        k(   12) = (   0.1833333  -0.0916667   0.0000000), wk =   0.0198020
        k(   13) = (   0.2000000  -0.1000000   0.0000000), wk =   0.0198020
        k(   14) = (   0.2166667  -0.1083333   0.0000000), wk =   0.0198020
        k(   15) = (   0.2333333  -0.1166667   0.0000000), wk =   0.0198020
        k(   16) = (   0.2500000  -0.1250000   0.0000000), wk =   0.0198020
        k(   17) = (   0.2666667  -0.1333333   0.0000000), wk =   0.0198020
        k(   18) = (   0.2833333  -0.1416667   0.0000000), wk =   0.0198020
        k(   19) = (   0.3000000  -0.1500000   0.0000000), wk =   0.0198020
        k(   20) = (   0.3166667  -0.1583333   0.0000000), wk =   0.0198020
        k(   21) = (   0.3333333  -0.1666667   0.0000000), wk =   0.0198020
        k(   22) = (   0.3500000  -0.1750000   0.0000000), wk =   0.0198020
        k(   23) = (   0.3666667  -0.1833333   0.0000000), wk =   0.0198020
        k(   24) = (   0.3833333  -0.1916667   0.0000000), wk =   0.0198020
        k(   25) = (   0.4000000  -0.2000000   0.0000000), wk =   0.0198020
        k(   26) = (   0.4166667  -0.2083333   0.0000000), wk =   0.0198020
        k(   27) = (   0.4333333  -0.2166667   0.0000000), wk =   0.0198020
        k(   28) = (   0.4500000  -0.2250000   0.0000000), wk =   0.0198020
        k(   29) = (   0.4666667  -0.2333333   0.0000000), wk =   0.0198020
        k(   30) = (   0.4833333  -0.2416667   0.0000000), wk =   0.0198020
        k(   31) = (   0.5000000  -0.2500000   0.0000000), wk =   0.0198020
        k(   32) = (   0.5166667  -0.2583333   0.0000000), wk =   0.0198020
        k(   33) = (   0.5333333  -0.2666667   0.0000000), wk =   0.0198020
        k(   34) = (   0.5500000  -0.2750000   0.0000000), wk =   0.0198020
        k(   35) = (   0.5666667  -0.2833333   0.0000000), wk =   0.0198020
        k(   36) = (   0.5833333  -0.2916667   0.0000000), wk =   0.0198020
        k(   37) = (   0.6000000  -0.3000000   0.0000000), wk =   0.0198020
        k(   38) = (   0.6166667  -0.3083333   0.0000000), wk =   0.0198020
        k(   39) = (   0.6333333  -0.3166667   0.0000000), wk =   0.0198020
        k(   40) = (   0.6500000  -0.3250000   0.0000000), wk =   0.0198020
        k(   41) = (   0.6666667  -0.3333333   0.0000000), wk =   0.0198020
        k(   42) = (   0.6583333  -0.3166667   0.0000000), wk =   0.0198020
        k(   43) = (   0.6500000  -0.3000000   0.0000000), wk =   0.0198020
        k(   44) = (   0.6416667  -0.2833333   0.0000000), wk =   0.0198020
        k(   45) = (   0.6333333  -0.2666667   0.0000000), wk =   0.0198020
        k(   46) = (   0.6250000  -0.2500000   0.0000000), wk =   0.0198020
        k(   47) = (   0.6166667  -0.2333333   0.0000000), wk =   0.0198020
        k(   48) = (   0.6083333  -0.2166667   0.0000000), wk =   0.0198020
        k(   49) = (   0.6000000  -0.2000000   0.0000000), wk =   0.0198020
        k(   50) = (   0.5916667  -0.1833333   0.0000000), wk =   0.0198020
        k(   51) = (   0.5833333  -0.1666667   0.0000000), wk =   0.0198020
        k(   52) = (   0.5750000  -0.1500000   0.0000000), wk =   0.0198020
        k(   53) = (   0.5666667  -0.1333333   0.0000000), wk =   0.0198020
        k(   54) = (   0.5583333  -0.1166667   0.0000000), wk =   0.0198020
        k(   55) = (   0.5500000  -0.1000000   0.0000000), wk =   0.0198020
        k(   56) = (   0.5416667  -0.0833333   0.0000000), wk =   0.0198020
        k(   57) = (   0.5333333  -0.0666667   0.0000000), wk =   0.0198020
        k(   58) = (   0.5250000  -0.0500000   0.0000000), wk =   0.0198020
        k(   59) = (   0.5166667  -0.0333333   0.0000000), wk =   0.0198020
        k(   60) = (   0.5083333  -0.0166667   0.0000000), wk =   0.0198020
        k(   61) = (   0.5000000   0.0000000   0.0000000), wk =   0.0198020
        k(   62) = (   0.4875000   0.0000000   0.0000000), wk =   0.0198020
        k(   63) = (   0.4750000   0.0000000   0.0000000), wk =   0.0198020
        k(   64) = (   0.4625000   0.0000000   0.0000000), wk =   0.0198020
        k(   65) = (   0.4500000   0.0000000   0.0000000), wk =   0.0198020
        k(   66) = (   0.4375000   0.0000000   0.0000000), wk =   0.0198020
        k(   67) = (   0.4250000   0.0000000   0.0000000), wk =   0.0198020
        k(   68) = (   0.4125000   0.0000000   0.0000000), wk =   0.0198020
        k(   69) = (   0.4000000   0.0000000   0.0000000), wk =   0.0198020
        k(   70) = (   0.3875000   0.0000000   0.0000000), wk =   0.0198020
        k(   71) = (   0.3750000   0.0000000   0.0000000), wk =   0.0198020
        k(   72) = (   0.3625000   0.0000000   0.0000000), wk =   0.0198020
        k(   73) = (   0.3500000   0.0000000   0.0000000), wk =   0.0198020
        k(   74) = (   0.3375000   0.0000000   0.0000000), wk =   0.0198020
        k(   75) = (   0.3250000   0.0000000   0.0000000), wk =   0.0198020
        k(   76) = (   0.3125000   0.0000000   0.0000000), wk =   0.0198020
        k(   77) = (   0.3000000   0.0000000   0.0000000), wk =   0.0198020
        k(   78) = (   0.2875000   0.0000000   0.0000000), wk =   0.0198020
        k(   79) = (   0.2750000   0.0000000   0.0000000), wk =   0.0198020
        k(   80) = (   0.2625000   0.0000000   0.0000000), wk =   0.0198020
        k(   81) = (   0.2500000   0.0000000   0.0000000), wk =   0.0198020
        k(   82) = (   0.2375000   0.0000000   0.0000000), wk =   0.0198020
        k(   83) = (   0.2250000   0.0000000   0.0000000), wk =   0.0198020
        k(   84) = (   0.2125000   0.0000000   0.0000000), wk =   0.0198020
        k(   85) = (   0.2000000   0.0000000   0.0000000), wk =   0.0198020
        k(   86) = (   0.1875000   0.0000000   0.0000000), wk =   0.0198020
        k(   87) = (   0.1750000   0.0000000   0.0000000), wk =   0.0198020
        k(   88) = (   0.1625000   0.0000000   0.0000000), wk =   0.0198020
        k(   89) = (   0.1500000   0.0000000   0.0000000), wk =   0.0198020
        k(   90) = (   0.1375000   0.0000000   0.0000000), wk =   0.0198020
        k(   91) = (   0.1250000   0.0000000   0.0000000), wk =   0.0198020
        k(   92) = (   0.1125000   0.0000000   0.0000000), wk =   0.0198020
        k(   93) = (   0.1000000   0.0000000   0.0000000), wk =   0.0198020
        k(   94) = (   0.0875000   0.0000000   0.0000000), wk =   0.0198020
        k(   95) = (   0.0750000   0.0000000   0.0000000), wk =   0.0198020
        k(   96) = (   0.0625000   0.0000000   0.0000000), wk =   0.0198020
        k(   97) = (   0.0500000   0.0000000   0.0000000), wk =   0.0198020
        k(   98) = (   0.0375000   0.0000000   0.0000000), wk =   0.0198020
        k(   99) = (   0.0250000   0.0000000   0.0000000), wk =   0.0198020
        k(  100) = (   0.0125000   0.0000000   0.0000000), wk =   0.0198020
        k(  101) = (   0.0000000   0.0000000   0.0000000), wk =   0.0198020

     Dense  grid:    18051 G-vectors     FFT dimensions: (  24,  24,  90)

     Dynamical RAM for                 wfc:       0.27 MB

     Dynamical RAM for     wfc (w. buffer):       0.27 MB

     Dynamical RAM for           str. fact:       0.28 MB

     Dynamical RAM for           local pot:       0.00 MB

     Dynamical RAM for          nlocal pot:       0.55 MB

     Dynamical RAM for                qrad:       0.25 MB

     Dynamical RAM for          rho,v,vnew:       2.01 MB

     Dynamical RAM for           G-vectors:       1.17 MB

     Dynamical RAM for          h,s,v(r/c):       0.05 MB

     Dynamical RAM for          <psi|beta>:       0.00 MB

     Dynamical RAM for                 psi:       1.10 MB

     Dynamical RAM for                hpsi:       1.10 MB

     Dynamical RAM for                spsi:       1.10 MB

     Dynamical RAM for      wfcinit/wfcrot:       0.55 MB

     Dynamical RAM for           addusdens:      12.39 MB

     Estimated static dynamical RAM per process >       7.05 MB

     Estimated max dynamical RAM per process >      19.45 MB
     Message from routine read_upf::
     Pseudo file C.pbe-n-kjpaw_psl.0.1.UPF has been fixed on the fly.
To avoid this message in the future, permanently fix 
 your pseudo files following these instructions: 
https://gitlab.com/QEF/q-e/blob/master/upftools/how_to_fix_upf.md
               file C.pbe-n-kjpaw_psl.0.1.UPF: wavefunction(s)  2P renormalized
     Message from routine read_upf::
     Pseudo file C.pbe-n-kjpaw_psl.0.1.UPF has been fixed on the fly.
To avoid this message in the future, permanently fix 
 your pseudo files following these instructions: 
https://gitlab.com/QEF/q-e/blob/master/upftools/how_to_fix_upf.md
               file C.pbe-n-kjpaw_psl.0.1.UPF: wavefunction(s)  2P renormalized


     G-vector sticks info
     --------------------
     sticks:   dense  smooth     PW     G-vecs:    dense   smooth      PW
     Sum         313     313     97                18051    18051    3157


     Title: 
     Unstrained graphene optimization. 2 atoms fragment. BANDS                  


     bravais-lattice index     =            4
     lattice parameter (alat)  =       4.6531  a.u.
     unit-cell volume          =     354.3310 (a.u.)^3
     number of atoms/cell      =            2
     number of atomic types    =            1
     number of electrons       =         8.00
     number of Kohn-Sham states=            8
     kinetic-energy cutoff     =      52.0000  Ry
     charge density cutoff     =     208.0000  Ry
     Exchange-correlation= SLA PW PBX PBC
                           (   1   4   3   4   0   0   0)

     celldm(1)=   4.653073  celldm(2)=   0.000000  celldm(3)=   4.061244
     celldm(4)=   0.000000  celldm(5)=   0.000000  celldm(6)=   0.000000

     crystal axes: (cart. coord. in units of alat)
               a(1) = (   1.000000   0.000000   0.000000 )  
               a(2) = (  -0.500000   0.866025   0.000000 )  
               a(3) = (   0.000000   0.000000   4.061244 )  

     reciprocal axes: (cart. coord. in units 2 pi/alat)
               b(1) = (  1.000000  0.577350 -0.000000 )  
               b(2) = (  0.000000  1.154701  0.000000 )  
               b(3) = (  0.000000 -0.000000  0.246230 )  


     PseudoPot. # 1 for C  read from file:
     ./C.pbe-n-kjpaw_psl.0.1.UPF
     MD5 check sum: 430fe95172b1e11ef3f8ed03bac87931
     Pseudo is Projector augmented-wave + core cor, Zval =  4.0
     Generated using "atomic" code by A. Dal Corso v.5.0.99 svn rev. 10869
     Shape of augmentation charge: BESSEL
     Using radial grid of 1073 points,  4 beta functions with: 
                l(1) =   0
                l(2) =   0
                l(3) =   1
                l(4) =   1
     Q(r) pseudized with 0 coefficients 


     atomic species   valence    mass     pseudopotential
        C              4.00    12.01100     C ( 1.00)

     24 Sym. Ops., with inversion, found


                                    s                        frac. trans.

      isym =  1     identity                                     

 cryst.   s( 1) = (     1          0          0      )
                  (     0          1          0      )
                  (     0          0          1      )

 cart.    s( 1) = (  1.0000000  0.0000000  0.0000000 )
                  (  0.0000000  1.0000000  0.0000000 )
                  (  0.0000000  0.0000000  1.0000000 )


      isym =  2     180 deg rotation - cart. axis [0,0,1]        

 cryst.   s( 2) = (    -1          0          0      )
                  (     0         -1          0      )
                  (     0          0          1      )

 cart.    s( 2) = ( -1.0000000  0.0000000  0.0000000 )
                  (  0.0000000 -1.0000000  0.0000000 )
                  (  0.0000000  0.0000000  1.0000000 )


      isym =  3     180 deg rotation - cart. axis [0,1,0]        

 cryst.   s( 3) = (    -1          0          0      )
                  (     1          1          0      )
                  (     0          0         -1      )

 cart.    s( 3) = ( -1.0000000  0.0000000  0.0000000 )
                  (  0.0000000  1.0000000  0.0000000 )
                  (  0.0000000  0.0000000 -1.0000000 )


      isym =  4     180 deg rotation - cart. axis [1,0,0]        

 cryst.   s( 4) = (     1          0          0      )
                  (    -1         -1          0      )
                  (     0          0         -1      )

 cart.    s( 4) = (  1.0000000  0.0000000  0.0000000 )
                  (  0.0000000 -1.0000000  0.0000000 )
                  (  0.0000000  0.0000000 -1.0000000 )


      isym =  5      60 deg rotation - cryst. axis [0,0,1]       

 cryst.   s( 5) = (     1          1          0      )
                  (    -1          0          0      )
                  (     0          0          1      )

 cart.    s( 5) = (  0.5000000 -0.8660254  0.0000000 )
                  (  0.8660254  0.5000000  0.0000000 )
                  (  0.0000000  0.0000000  1.0000000 )


      isym =  6      60 deg rotation - cryst. axis [0,0,-1]      

 cryst.   s( 6) = (     0         -1          0      )
                  (     1          1          0      )
                  (     0          0          1      )

 cart.    s( 6) = (  0.5000000  0.8660254  0.0000000 )
                  ( -0.8660254  0.5000000  0.0000000 )
                  (  0.0000000  0.0000000  1.0000000 )


      isym =  7     120 deg rotation - cryst. axis [0,0,1]       

 cryst.   s( 7) = (     0          1          0      )
                  (    -1         -1          0      )
                  (     0          0          1      )

 cart.    s( 7) = ( -0.5000000 -0.8660254  0.0000000 )
                  (  0.8660254 -0.5000000  0.0000000 )
                  (  0.0000000  0.0000000  1.0000000 )


      isym =  8     120 deg rotation - cryst. axis [0,0,-1]      

 cryst.   s( 8) = (    -1         -1          0      )
                  (     1          0          0      )
                  (     0          0          1      )

 cart.    s( 8) = ( -0.5000000  0.8660254  0.0000000 )
                  ( -0.8660254 -0.5000000  0.0000000 )
                  (  0.0000000  0.0000000  1.0000000 )


      isym =  9     180 deg rotation - cryst. axis [1,-1,0]      

[...]

   -19.2879  -7.2399  -5.7577  -4.9134   3.5496   5.1763   6.1935   8.4549

          k = 0.2167 0.0000 0.0000 (  2261 PWs)   bands (ev):

   -19.1656  -7.0952  -6.0599  -5.1335   3.7181   5.3417   6.3595   8.5066

          k = 0.2333 0.0000 0.0000 (  2255 PWs)   bands (ev):

   -19.0338  -6.9396  -6.3666  -5.3634   3.9000   5.5200   6.5389   8.1643

          k = 0.2500 0.0000 0.0000 (  2251 PWs)   bands (ev):

   -18.8924  -6.7731  -6.6761  -5.6016   4.0954   5.7110   6.7315   7.8122

          k = 0.2667 0.0000 0.0000 (  2251 PWs)   bands (ev):

   -18.7416  -6.9868  -6.5960  -5.8470   4.3042   5.9148   6.9374   7.4523

          k = 0.2833 0.0000 0.0000 (  2245 PWs)   bands (ev):

   -18.5813  -7.2975  -6.4085  -6.0982   4.5263   6.1310   7.0864   7.1565

          k = 0.3000 0.0000 0.0000 (  2245 PWs)   bands (ev):

   -18.4118  -7.6070  -6.3541  -6.2109   4.7618   6.3595   6.7163   7.3887

          k = 0.3167 0.0000 0.0000 (  2243 PWs)   bands (ev):

   -18.2331  -7.9145  -6.6136  -6.0033   5.0106   6.3435   6.6001   7.6341

          k = 0.3333 0.0000 0.0000 (  2251 PWs)   bands (ev):

   -18.0452  -8.2190  -6.8754  -5.7860   5.2727   5.9694   6.8523   7.8925

          k = 0.3500 0.0000 0.0000 (  2251 PWs)   bands (ev):

   -17.8484  -8.5200  -7.1387  -5.5595   5.5480   5.5954   7.1159   8.1638

          k = 0.3667 0.0000 0.0000 (  2251 PWs)   bands (ev):

   -17.6426  -8.8167  -7.4023  -5.3240   5.2226   5.8365   7.3902   8.4480

          k = 0.3833 0.0000 0.0000 (  2243 PWs)   bands (ev):

   -17.4282  -9.1086  -7.6654  -5.0801   4.8521   6.1380   7.6745   8.7447

          k = 0.4000 0.0000 0.0000 (  2233 PWs)   bands (ev):

   -17.2053  -9.3953  -7.9271  -4.8281   4.4850   6.4525   7.9677   9.0540

          k = 0.4167 0.0000 0.0000 (  2233 PWs)   bands (ev):

   -16.9740  -9.6764  -8.1866  -4.5686   4.1219   6.7799   8.2684   9.3754

          k = 0.4333 0.0000 0.0000 (  2233 PWs)   bands (ev):

   -16.7346  -9.9514  -8.4431  -4.3022   3.7638   7.1200   8.5745   9.7086

          k = 0.4500 0.0000 0.0000 (  2239 PWs)   bands (ev):

   -16.4875 -10.2202  -8.6958  -4.0296   3.4114   7.4727   8.8829  10.0531

          k = 0.4667 0.0000 0.0000 (  2239 PWs)   bands (ev):

   -16.2328 -10.4824  -8.9439  -3.7516   3.0653   7.8377   9.1888  10.4081

          k = 0.4833 0.0000 0.0000 (  2235 PWs)   bands (ev):

   -15.9712 -10.7378  -9.1866  -3.4690   2.7260   8.2147   9.4850  10.7723

          k = 0.5000 0.0000 0.0000 (  2233 PWs)   bands (ev):

   -15.7030 -10.9862  -9.4231  -3.1828   2.3942   8.6032   9.7603  11.1434

          k = 0.5167 0.0000 0.0000 (  2235 PWs)   bands (ev):

   -15.4290 -11.2275  -9.6525  -2.8941   2.0702   9.0028   9.9990  11.5171

          k = 0.5333 0.0000 0.0000 (  2239 PWs)   bands (ev):

   -15.1500 -11.4614  -9.8737  -2.6042   1.7545   9.4124  10.1823  11.8840

          k = 0.5500 0.0000 0.0000 (  2243 PWs)   bands (ev):

   -14.8672 -11.6878 -10.0855  -2.3144   1.4476   9.8310  10.2967  12.2238

          k = 0.5667 0.0000 0.0000 (  2239 PWs)   bands (ev):

   -14.5820 -11.9066 -10.2863  -2.0263   1.1497  10.2565  10.3435  12.5054

          k = 0.5833 0.0000 0.0000 (  2237 PWs)   bands (ev):

   -14.2967 -12.1177 -10.4739  -1.7414   0.8611  10.3392  10.6860  12.5848

          k = 0.6000 0.0000 0.0000 (  2245 PWs)   bands (ev):

   -14.0146 -12.3210 -10.6452  -1.4617   0.5821  10.3056  11.1143  12.6060

          k = 0.6167 0.0000 0.0000 (  2247 PWs)   bands (ev):

   -13.7402 -12.5164 -10.7956  -1.1890   0.3130  10.2615  11.5318  12.6027

          k = 0.6333 0.0000 0.0000 (  2243 PWs)   bands (ev):

   -13.4809 -12.7038 -10.9181  -0.9252   0.0541  10.2203  11.9200  12.5721

          k = 0.6500 0.0000 0.0000 (  2243 PWs)   bands (ev):

   -13.2475 -12.8832 -11.0022  -0.6724  -0.1945  10.1912  12.2410  12.5132

          k = 0.6667 0.0000 0.0000 (  2244 PWs)   bands (ev):

   -13.0545 -13.0545 -11.0338  -0.4325  -0.4325  10.1805  12.4277  12.4277

          k = 0.6583 0.0144 0.0000 (  2240 PWs)   bands (ev):

   -13.2177 -12.9175 -10.9979  -0.6599  -0.2075  10.1922  12.3197  12.4427

          k = 0.6500 0.0289 0.0000 (  2238 PWs)   bands (ev):

   -13.3727 -12.8445 -10.8870  -0.8764   0.0012  10.2287  12.1945  12.3461

          k = 0.6417 0.0433 0.0000 (  2236 PWs)   bands (ev):

   -13.5195 -12.8300 -10.7075  -1.0819   0.1923  10.2910  12.0578  12.1928

          k = 0.6333 0.0577 0.0000 (  2232 PWs)   bands (ev):

   -13.6581 -12.8591 -10.4753  -1.2762   0.3648  10.3785  11.9148  11.9881

          k = 0.6250 0.0722 0.0000 (  2230 PWs)   bands (ev):

   -13.7883 -12.9159 -10.2075  -1.4592   0.5184  10.4894  11.6949  11.7698

          k = 0.6167 0.0866 0.0000 (  2236 PWs)   bands (ev):

   -13.9103 -12.9882  -9.9175  -1.6309   0.6533  10.6206  11.3076  11.6262

          k = 0.6083 0.1010 0.0000 (  2232 PWs)   bands (ev):

   -14.0239 -13.0679  -9.6149  -1.7911   0.7699  10.7672  10.8735  11.4866

          k = 0.6000 0.1155 0.0000 (  2234 PWs)   bands (ev):

   -14.1292 -13.1499  -9.3069  -1.9398   0.8693  10.4233  10.9232  11.3529

          k = 0.5917 0.1299 0.0000 (  2230 PWs)   bands (ev):

   -14.2261 -13.2307  -8.9990  -2.0769   0.9527   9.9724  11.0814  11.2267

          k = 0.5833 0.1443 0.0000 (  2226 PWs)   bands (ev):

   -14.3147 -13.3081  -8.6959  -2.2022   1.0216   9.5308  11.1092  11.2341

          k = 0.5750 0.1588 0.0000 (  2234 PWs)   bands (ev):

   -14.3948 -13.3806  -8.4020  -2.3159   1.0778   9.1062  11.0010  11.1614

          k = 0.5667 0.1732 0.0000 (  2236 PWs)   bands (ev):

   -14.4665 -13.4472  -8.1215  -2.4177   1.1228   8.7049  10.9030  11.0561

          k = 0.5583 0.1876 0.0000 (  2242 PWs)   bands (ev):

   -14.5298 -13.5072  -7.8588  -2.5076   1.1584   8.3328  10.8157  10.9628

          k = 0.5500 0.2021 0.0000 (  2246 PWs)   bands (ev):

   -14.5847 -13.5599  -7.6182  -2.5856   1.1860   7.9956  10.7393  10.8815

          k = 0.5417 0.2165 0.0000 (  2242 PWs)   bands (ev):

   -14.6311 -13.6051  -7.4044  -2.6517   1.2070   7.6986  10.6743  10.8126

          k = 0.5333 0.2309 0.0000 (  2238 PWs)   bands (ev):

   -14.6692 -13.6424  -7.2216  -2.7058   1.2226   7.4471  10.6208  10.7560

          k = 0.5250 0.2454 0.0000 (  2252 PWs)   bands (ev):

   -14.6987 -13.6716  -7.0743  -2.7479   1.2336   7.2457  10.5790  10.7119

          k = 0.5167 0.2598 0.0000 (  2258 PWs)   bands (ev):

   -14.7199 -13.6925  -6.9660  -2.7780   1.2410   7.0986  10.5491  10.6803

          k = 0.5083 0.2742 0.0000 (  2256 PWs)   bands (ev):

   -14.7325 -13.7052  -6.8998  -2.7960   1.2452   7.0090  10.5311  10.6614

          k = 0.5000 0.2887 0.0000 (  2256 PWs)   bands (ev):

   -14.7368 -13.7094  -6.8775  -2.8020   1.2466   6.9789  10.5251  10.6550

          k = 0.4875 0.2815 0.0000 (  2250 PWs)   bands (ev):

   -14.8036 -13.6370  -6.8738  -2.8265   1.2769   6.9808  10.1993  10.9882

          k = 0.4750 0.2742 0.0000 (  2246 PWs)   bands (ev):

   -14.9664 -13.4577  -6.8627  -2.8977   1.3655   6.9863   9.8245  11.2826

          k = 0.4625 0.2670 0.0000 (  2244 PWs)   bands (ev):

   -15.1728 -13.2237  -6.8443  -3.0100   1.5067   6.9954   9.4563  10.9399

          k = 0.4500 0.2598 0.0000 (  2238 PWs)   bands (ev):

   -15.3963 -12.9618  -6.8186  -3.1555   1.6926   7.0081   9.0966  10.5994

          k = 0.4375 0.2526 0.0000 (  2244 PWs)   bands (ev):

   -15.6254 -12.6834  -6.7856  -3.3265   1.9153   7.0240   8.7458  10.2642

          k = 0.4250 0.2454 0.0000 (  2244 PWs)   bands (ev):

   -15.8547 -12.3940  -6.7455  -3.5161   2.1675   7.0429   8.4047   9.9357

          k = 0.4125 0.2382 0.0000 (  2240 PWs)   bands (ev):

   -16.0818 -12.0963  -6.6981  -3.7184   2.4433   7.0641   8.0739   9.6146

          k = 0.4000 0.2309 0.0000 (  2232 PWs)   bands (ev):

   -16.3051 -11.7919  -6.6438  -3.9289   2.7378   7.0855   7.7555   9.3015

          k = 0.3875 0.2237 0.0000 (  2238 PWs)   bands (ev):

   -16.5238 -11.4819  -6.5825  -4.1442   3.0472   7.0986   7.4582   8.9968

          k = 0.3750 0.2165 0.0000 (  2233 PWs)   bands (ev):

   -16.7372 -11.1671  -6.5144  -4.3614   3.3684   7.0331   7.2518   8.7007

          k = 0.3625 0.2093 0.0000 (  2233 PWs)   bands (ev):

   -16.9449 -10.8481  -6.4397  -4.5787   3.6987   6.7944   7.2310   8.4137

          k = 0.3500 0.2021 0.0000 (  2233 PWs)   bands (ev):

   -17.1467 -10.5255  -6.3585  -4.7943   4.0360   6.5204   7.2574   8.1359

          k = 0.3375 0.1949 0.0000 (  2239 PWs)   bands (ev):

   -17.3424 -10.1999  -6.2711  -5.0069   4.3783   6.2488   7.2929   7.8676

          k = 0.3250 0.1876 0.0000 (  2241 PWs)   bands (ev):

   -17.5317  -9.8717  -6.1775  -5.2156   4.7237   5.9849   7.3317   7.6094

          k = 0.3125 0.1804 0.0000 (  2233 PWs)   bands (ev):

   -17.7145  -9.5416  -6.0781  -5.4195   5.0703   5.7298   7.3619   7.3712

          k = 0.3000 0.1732 0.0000 (  2237 PWs)   bands (ev):

   -17.8907  -9.2101  -5.9732  -5.6180   5.4152   5.4842   7.1267   7.4085

          k = 0.2875 0.1660 0.0000 (  2239 PWs)   bands (ev):

   -18.0602  -8.8778  -5.8631  -5.8106   5.2481   5.7531   6.9078   7.4366

          k = 0.2750 0.1588 0.0000 (  2235 PWs)   bands (ev):

   -18.2229  -8.5452  -5.9968  -5.7481   5.0219   6.0656   6.7226   7.4324

          k = 0.2625 0.1516 0.0000 (  2243 PWs)   bands (ev):

   -18.3788  -8.2133  -6.1762  -5.6287   4.8054   6.2453   6.6773   7.3457

          k = 0.2500 0.1443 0.0000 (  2247 PWs)   bands (ev):

   -18.5277  -7.8826  -6.3487  -5.5052   4.5989   6.1588   6.9043   7.1882

          k = 0.2375 0.1371 0.0000 (  2255 PWs)   bands (ev):

   -18.6697  -7.5539  -6.5138  -5.3782   4.4023   5.9933   7.0121   7.2149

          k = 0.2250 0.1299 0.0000 (  2265 PWs)   bands (ev):

   -18.8046  -7.2284  -6.6714  -5.2482   4.2157   5.8204   6.8367   7.5367

          k = 0.2125 0.1227 0.0000 (  2261 PWs)   bands (ev):

   -18.9325  -6.9067  -6.8212  -5.1159   4.0391   5.6520   6.6674   7.8060

          k = 0.2000 0.1155 0.0000 (  2265 PWs)   bands (ev):

   -19.0532  -6.9631  -6.5901  -4.9819   3.8725   5.4909   6.5061   7.8442

          k = 0.1875 0.1083 0.0000 (  2261 PWs)   bands (ev):

   -19.1668  -7.0970  -6.2798  -4.8471   3.7160   5.3385   6.3537   7.8795

          k = 0.1750 0.1010 0.0000 (  2261 PWs)   bands (ev):

   -19.2732  -7.2228  -5.9770  -4.7123   3.5695   5.1953   6.2106   7.9110

          k = 0.1625 0.0938 0.0000 (  2261 PWs)   bands (ev):

   -19.3724  -7.3402  -5.6833  -4.5784   3.4331   5.0616   6.0771   7.9376

          k = 0.1500 0.0866 0.0000 (  2267 PWs)   bands (ev):

   -19.4643  -7.4493  -5.4000  -4.4466   3.3068   4.9374   5.9533   7.9588

          k = 0.1375 0.0794 0.0000 (  2261 PWs)   bands (ev):

   -19.5490  -7.5499  -5.1288  -4.3179   3.1905   4.8231   5.8392   7.9739

          k = 0.1250 0.0722 0.0000 (  2259 PWs)   bands (ev):

   -19.6264  -7.6419  -4.8717  -4.1935   3.0844   4.7185   5.7350   7.9828

          k = 0.1125 0.0650 0.0000 (  2259 PWs)   bands (ev):

   -19.6964  -7.7254  -4.6303  -4.0749   2.9883   4.6237   5.6407   7.9855

          k = 0.1000 0.0577 0.0000 (  2265 PWs)   bands (ev):

   -19.7592  -7.8002  -4.4068  -3.9633   2.9024   4.5389   5.5562   7.9826

          k = 0.0875 0.0505 0.0000 (  2269 PWs)   bands (ev):

   -19.8146  -7.8664  -4.2031  -3.8602   2.8266   4.4640   5.4817   7.9748

          k = 0.0750 0.0433 0.0000 (  2261 PWs)   bands (ev):

   -19.8626  -7.9238  -4.0211  -3.7671   2.7608   4.3990   5.4172   7.9635

          k = 0.0625 0.0361 0.0000 (  2263 PWs)   bands (ev):

   -19.9033  -7.9724  -3.8631  -3.6854   2.7052   4.3440   5.3626   7.9498

          k = 0.0500 0.0289 0.0000 (  2263 PWs)   bands (ev):

   -19.9366  -8.0122  -3.7308  -3.6163   2.6597   4.2990   5.3179   7.9355

          k = 0.0375 0.0217 0.0000 (  2265 PWs)   bands (ev):

   -19.9624  -8.0432  -3.6259  -3.5612   2.6244   4.2640   5.2831   7.9223

          k = 0.0250 0.0144 0.0000 (  2265 PWs)   bands (ev):

   -19.9809  -8.0654  -3.5499  -3.5211   2.5991   4.2390   5.2583   7.9116

          k = 0.0125 0.0072 0.0000 (  2275 PWs)   bands (ev):

   -19.9921  -8.0787  -3.5039  -3.4967   2.5839   4.2240   5.2434   7.9047

          k = 0.0000 0.0000 0.0000 (  2263 PWs)   bands (ev):

   -19.9958  -8.0831  -3.4885  -3.4885   2.5789   4.2190   5.2385   7.9023

     Writing output data file ./Gr.save/

     init_run     :      0.23s CPU      0.48s WALL (       1 calls)
     electrons    :     17.41s CPU     30.55s WALL (       1 calls)

     Called by init_run:
     wfcinit      :      0.00s CPU      0.00s WALL (       1 calls)
     wfcinit:atom :      0.02s CPU      0.02s WALL (     101 calls)
     wfcinit:wfcr :      0.87s CPU      1.49s WALL (     101 calls)
     potinit      :      0.09s CPU      0.18s WALL (       1 calls)
     hinit0       :      0.12s CPU      0.23s WALL (       1 calls)

     Called by electrons:
     c_bands      :     17.41s CPU     30.55s WALL (       1 calls)
     v_of_rho     :      0.02s CPU      0.05s WALL (       1 calls)
     v_h          :      0.00s CPU      0.00s WALL (       1 calls)
     v_xc         :      0.02s CPU      0.05s WALL (       1 calls)
     newd         :      0.01s CPU      0.02s WALL (       1 calls)
     PAW_pot      :      0.06s CPU      0.13s WALL (       1 calls)

     Called by c_bands:
     init_us_2    :      0.03s CPU      0.03s WALL (     101 calls)
     cegterg      :     16.36s CPU     28.57s WALL (     167 calls)

     Called by sum_band:

     Called by *egterg:
     h_psi        :     12.81s CPU     22.06s WALL (    2779 calls)
     s_psi        :      0.50s CPU      0.86s WALL (    2779 calls)
     g_psi        :      0.07s CPU      0.14s WALL (    2511 calls)
     cdiaghg      :      0.29s CPU      0.49s WALL (    2612 calls)
     cegterg:over :      1.42s CPU      2.56s WALL (    2511 calls)
     cegterg:upda :      1.00s CPU      1.88s WALL (    2511 calls)
     cegterg:last :      0.89s CPU      1.58s WALL (     554 calls)

     Called by h_psi:
     h_psi:calbec :      0.70s CPU      1.35s WALL (    2779 calls)
     vloc_psi     :     11.55s CPU     19.67s WALL (    2779 calls)
     add_vuspsi   :      0.51s CPU      0.97s WALL (    2779 calls)

     General routines
     calbec       :      0.69s CPU      1.34s WALL (    2779 calls)
     fft          :      0.01s CPU      0.01s WALL (      12 calls)
     fftw         :     10.29s CPU     17.68s WALL (   25944 calls)
     davcio       :      0.01s CPU      0.12s WALL (     202 calls)


     PAW routines
     PAW_pot      :      0.06s CPU      0.13s WALL (       1 calls)

     PWSCF        :     17.93s CPU     31.58s WALL


   This run was terminated on:  17:44: 6   4Jun2020            

=------------------------------------------------------------------------------=
   JOB DONE.
=------------------------------------------------------------------------------=

     init_run     :      0.24s CPU      0.34s WALL (       1 calls)
     electrons    :     17.48s CPU     30.71s WALL (       1 calls)

     Called by init_run:
     wfcinit      :      0.00s CPU      0.00s WALL (       1 calls)
     wfcinit:atom :      0.02s CPU      0.02s WALL (     101 calls)
     wfcinit:wfcr :      0.89s CPU      1.45s WALL (     101 calls)
     potinit      :      0.08s CPU      0.13s WALL (       1 calls)
     hinit0       :      0.12s CPU      0.14s WALL (       1 calls)

     Called by electrons:
     c_bands      :     17.48s CPU     30.70s WALL (       1 calls)
     v_of_rho     :      0.02s CPU      0.02s WALL (       1 calls)
     v_h          :      0.00s CPU      0.00s WALL (       1 calls)
     v_xc         :      0.02s CPU      0.02s WALL (       1 calls)
     newd         :      0.01s CPU      0.02s WALL (       1 calls)
     PAW_pot      :      0.06s CPU      0.11s WALL (       1 calls)

     Called by c_bands:
     init_us_2    :      0.03s CPU      0.03s WALL (     101 calls)
     cegterg      :     16.41s CPU     28.74s WALL (     167 calls)

     Called by sum_band:

     Called by *egterg:
     h_psi        :     12.86s CPU     22.53s WALL (    2779 calls)
     s_psi        :      0.49s CPU      0.84s WALL (    2779 calls)
     g_psi        :      0.07s CPU      0.13s WALL (    2511 calls)
     cdiaghg      :      0.29s CPU      0.50s WALL (    2612 calls)
     cegterg:over :      1.42s CPU      2.40s WALL (    2511 calls)
     cegterg:upda :      1.01s CPU      1.74s WALL (    2511 calls)
     cegterg:last :      0.90s CPU      1.56s WALL (     554 calls)

     Called by h_psi:
     h_psi:calbec :      0.70s CPU      1.39s WALL (    2779 calls)
     vloc_psi     :     11.60s CPU     20.09s WALL (    2779 calls)
     add_vuspsi   :      0.51s CPU      0.97s WALL (    2779 calls)

     General routines
     calbec       :      0.69s CPU      1.38s WALL (    2779 calls)
     fft          :      0.01s CPU      0.01s WALL (      12 calls)
     fftw         :     10.33s CPU     17.90s WALL (   25944 calls)
     davcio       :      0.01s CPU      0.07s WALL (     202 calls)


     PAW routines
     PAW_pot      :      0.06s CPU      0.11s WALL (       1 calls)

     PWSCF        :     17.99s CPU     31.60s WALL


   This run was terminated on:  17:44: 6   4Jun2020            

=------------------------------------------------------------------------------=
   JOB DONE.
=------------------------------------------------------------------------------=

     init_run     :      0.24s CPU      0.36s WALL (       1 calls)
     electrons    :     17.38s CPU     30.69s WALL (       1 calls)

     Called by init_run:
     wfcinit      :      0.00s CPU      0.00s WALL (       1 calls)
     wfcinit:atom :      0.02s CPU      0.03s WALL (     101 calls)
     wfcinit:wfcr :      0.88s CPU      1.39s WALL (     101 calls)
     potinit      :      0.09s CPU      0.09s WALL (       1 calls)
     hinit0       :      0.12s CPU      0.20s WALL (       1 calls)

     Called by electrons:
     c_bands      :     17.38s CPU     30.69s WALL (       1 calls)
     v_of_rho     :      0.02s CPU      0.03s WALL (       1 calls)
     v_h          :      0.00s CPU      0.00s WALL (       1 calls)
     v_xc         :      0.02s CPU      0.02s WALL (       1 calls)
     newd         :      0.01s CPU      0.01s WALL (       1 calls)
     PAW_pot      :      0.06s CPU      0.06s WALL (       1 calls)

     Called by c_bands:
     init_us_2    :      0.03s CPU      0.03s WALL (     101 calls)
     cegterg      :     16.33s CPU     28.75s WALL (     167 calls)

     Called by sum_band:

     Called by *egterg:
     h_psi        :     12.80s CPU     22.70s WALL (    2779 calls)
     s_psi        :      0.49s CPU      0.79s WALL (    2779 calls)
     g_psi        :      0.07s CPU      0.10s WALL (    2511 calls)
     cdiaghg      :      0.29s CPU      0.45s WALL (    2612 calls)
     cegterg:over :      1.42s CPU      2.39s WALL (    2511 calls)
     cegterg:upda :      1.00s CPU      1.65s WALL (    2511 calls)
     cegterg:last :      0.89s CPU      1.54s WALL (     554 calls)

     Called by h_psi:
     h_psi:calbec :      0.69s CPU      1.36s WALL (    2779 calls)
     vloc_psi     :     11.56s CPU     20.35s WALL (    2779 calls)
     add_vuspsi   :      0.51s CPU      0.91s WALL (    2779 calls)

     General routines
     calbec       :      0.68s CPU      1.36s WALL (    2779 calls)
     fft          :      0.01s CPU      0.01s WALL (      12 calls)
     fftw         :     10.29s CPU     18.09s WALL (   25944 calls)
     davcio       :      0.01s CPU      0.08s WALL (     202 calls)


     PAW routines
     PAW_pot      :      0.06s CPU      0.06s WALL (       1 calls)

     PWSCF        :     17.91s CPU     31.62s WALL


   This run was terminated on:  17:44: 6   4Jun2020            

=------------------------------------------------------------------------------=
   JOB DONE.
=------------------------------------------------------------------------------=
