
     Program PWSCF v.6.5 starts on  4Jun2020 at 17:38:32 

     This program is part of the open-source Quantum ESPRESSO suite
     for quantum simulation of materials; please cite
         "P. Giannozzi et al., J. Phys.:Condens. Matter 21 395502 (2009);
         "P. Giannozzi et al., J. Phys.:Condens. Matter 29 465901 (2017);
          URL http://www.quantum-espresso.org", 
     in publications or presentations arising from this work. More details at
     http://www.quantum-espresso.org/quote

     Serial version
     Reading input from relax.inp

     Current dimensions of program PWSCF are:
     Max number of different atomic species (ntypx) = 10
     Max number of k-points (npk) =  40000
     Max angular momentum in pseudopotentials (lmaxx) =  3
     Message from routine read_upf::
     Pseudo file C.pbe-n-kjpaw_psl.0.1.UPF has been fixed on the fly.
To avoid this message in the future, permanently fix 
 your pseudo files following these instructions: 
https://gitlab.com/QEF/q-e/blob/master/upftools/how_to_fix_upf.md
               file C.pbe-n-kjpaw_psl.0.1.UPF: wavefunction(s)  2P renormalized

     G-vector sticks info
     --------------------
     sticks:   dense  smooth     PW     G-vecs:    dense   smooth      PW
     Sum         313     313     97                18051    18051    3157


     Title: 
     Unstrained graphene optimization. 2 atoms fragment. VC-RELAX               


     bravais-lattice index     =            4
     lattice parameter (alat)  =       4.6531  a.u.
     unit-cell volume          =     354.3310 (a.u.)^3
     number of atoms/cell      =            2
     number of atomic types    =            1
     number of electrons       =         8.00
     number of Kohn-Sham states=            8
     kinetic-energy cutoff     =      52.0000  Ry
     charge density cutoff     =     208.0000  Ry
     convergence threshold     =      1.0E-06
     mixing beta               =       0.7000
     number of iterations used =            8  plain     mixing
     Exchange-correlation= SLA PW PBX PBC
                           (   1   4   3   4   0   0   0)
     nstep                     =          200


     celldm(1)=   4.653073  celldm(2)=   0.000000  celldm(3)=   4.061244
     celldm(4)=   0.000000  celldm(5)=   0.000000  celldm(6)=   0.000000

     crystal axes: (cart. coord. in units of alat)
               a(1) = (   1.000000   0.000000   0.000000 )  
               a(2) = (  -0.500000   0.866025   0.000000 )  
               a(3) = (   0.000000   0.000000   4.061244 )  

     reciprocal axes: (cart. coord. in units 2 pi/alat)
               b(1) = (  1.000000  0.577350 -0.000000 )  
               b(2) = (  0.000000  1.154701  0.000000 )  
               b(3) = (  0.000000 -0.000000  0.246230 )  


     PseudoPot. # 1 for C  read from file:
     ./C.pbe-n-kjpaw_psl.0.1.UPF
     MD5 check sum: 430fe95172b1e11ef3f8ed03bac87931
     Pseudo is Projector augmented-wave + core cor, Zval =  4.0
     Generated using "atomic" code by A. Dal Corso v.5.0.99 svn rev. 10869
     Shape of augmentation charge: BESSEL
     Using radial grid of 1073 points,  4 beta functions with: 
                l(1) =   0
                l(2) =   0
                l(3) =   1
                l(4) =   1
     Q(r) pseudized with 0 coefficients 


     atomic species   valence    mass     pseudopotential
        C              4.00    12.01100     C ( 1.00)

     24 Sym. Ops., with inversion, found


                                    s                        frac. trans.

      isym =  1     identity                                     

 cryst.   s( 1) = (     1          0          0      )
                  (     0          1          0      )
                  (     0          0          1      )

 cart.    s( 1) = (  1.0000000  0.0000000  0.0000000 )
                  (  0.0000000  1.0000000  0.0000000 )
                  (  0.0000000  0.0000000  1.0000000 )


      isym =  2     180 deg rotation - cart. axis [0,0,1]        

 cryst.   s( 2) = (    -1          0          0      )
                  (     0         -1          0      )
                  (     0          0          1      )

 cart.    s( 2) = ( -1.0000000  0.0000000  0.0000000 )
                  (  0.0000000 -1.0000000  0.0000000 )
                  (  0.0000000  0.0000000  1.0000000 )


      isym =  3     180 deg rotation - cart. axis [0,1,0]        

 cryst.   s( 3) = (    -1          0          0      )
                  (     1          1          0      )
                  (     0          0         -1      )

 cart.    s( 3) = ( -1.0000000  0.0000000  0.0000000 )
                  (  0.0000000  1.0000000  0.0000000 )
                  (  0.0000000  0.0000000 -1.0000000 )


      isym =  4     180 deg rotation - cart. axis [1,0,0]        

 cryst.   s( 4) = (     1          0          0      )
                  (    -1         -1          0      )
                  (     0          0         -1      )

 cart.    s( 4) = (  1.0000000  0.0000000  0.0000000 )
                  (  0.0000000 -1.0000000  0.0000000 )
                  (  0.0000000  0.0000000 -1.0000000 )


      isym =  5      60 deg rotation - cryst. axis [0,0,1]       

 cryst.   s( 5) = (     1          1          0      )
                  (    -1          0          0      )
                  (     0          0          1      )

 cart.    s( 5) = (  0.5000000 -0.8660254  0.0000000 )
                  (  0.8660254  0.5000000  0.0000000 )
                  (  0.0000000  0.0000000  1.0000000 )


      isym =  6      60 deg rotation - cryst. axis [0,0,-1]      

 cryst.   s( 6) = (     0         -1          0      )
                  (     1          1          0      )
                  (     0          0          1      )

 cart.    s( 6) = (  0.5000000  0.8660254  0.0000000 )
                  ( -0.8660254  0.5000000  0.0000000 )
                  (  0.0000000  0.0000000  1.0000000 )


      isym =  7     120 deg rotation - cryst. axis [0,0,1]       

 cryst.   s( 7) = (     0          1          0      )
                  (    -1         -1          0      )
                  (     0          0          1      )

 cart.    s( 7) = ( -0.5000000 -0.8660254  0.0000000 )
                  (  0.8660254 -0.5000000  0.0000000 )
                  (  0.0000000  0.0000000  1.0000000 )


      isym =  8     120 deg rotation - cryst. axis [0,0,-1]      

 cryst.   s( 8) = (    -1         -1          0      )
                  (     1          0          0      )
                  (     0          0          1      )

 cart.    s( 8) = ( -0.5000000  0.8660254  0.0000000 )
                  ( -0.8660254 -0.5000000  0.0000000 )
                  (  0.0000000  0.0000000  1.0000000 )


      isym =  9     180 deg rotation - cryst. axis [1,-1,0]      

 cryst.   s( 9) = (     0         -1          0      )
                  (    -1          0          0      )
                  (     0          0         -1      )

 cart.    s( 9) = (  0.5000000 -0.8660254  0.0000000 )
                  ( -0.8660254 -0.5000000  0.0000000 )
                  (  0.0000000  0.0000000 -1.0000000 )


      isym = 10     180 deg rotation - cryst. axis [2,1,0]       

 cryst.   s(10) = (     1          1          0      )
                  (     0         -1          0      )
                  (     0          0         -1      )

 cart.    s(10) = (  0.5000000  0.8660254  0.0000000 )
                  (  0.8660254 -0.5000000  0.0000000 )
                  (  0.0000000  0.0000000 -1.0000000 )


      isym = 11     180 deg rotation - cryst. axis [0,1,0]       

 cryst.   s(11) = (    -1         -1          0      )
                  (     0          1          0      )
                  (     0          0         -1      )

 cart.    s(11) = ( -0.5000000 -0.8660254  0.0000000 )
                  ( -0.8660254  0.5000000  0.0000000 )
                  (  0.0000000  0.0000000 -1.0000000 )


      isym = 12     180 deg rotation - cryst. axis [1,1,0]       

 cryst.   s(12) = (     0          1          0      )
                  (     1          0          0      )
                  (     0          0         -1      )

 cart.    s(12) = ( -0.5000000  0.8660254  0.0000000 )
                  (  0.8660254  0.5000000  0.0000000 )
                  (  0.0000000  0.0000000 -1.0000000 )


      isym = 13     inversion                                    

 cryst.   s(13) = (    -1          0          0      )
                  (     0         -1          0      )
                  (     0          0         -1      )

 cart.    s(13) = ( -1.0000000  0.0000000  0.0000000 )
                  (  0.0000000 -1.0000000  0.0000000 )
                  (  0.0000000  0.0000000 -1.0000000 )


      isym = 14     inv. 180 deg rotation - cart. axis [0,0,1]   

 cryst.   s(14) = (     1          0          0      )
                  (     0          1          0      )
                  (     0          0         -1      )

 cart.    s(14) = (  1.0000000  0.0000000  0.0000000 )
                  (  0.0000000  1.0000000  0.0000000 )
                  (  0.0000000  0.0000000 -1.0000000 )


      isym = 15     inv. 180 deg rotation - cart. axis [0,1,0]   

 cryst.   s(15) = (     1          0          0      )
                  (    -1         -1          0      )
                  (     0          0          1      )

 cart.    s(15) = (  1.0000000  0.0000000  0.0000000 )
                  (  0.0000000 -1.0000000  0.0000000 )
                  (  0.0000000  0.0000000  1.0000000 )


      isym = 16     inv. 180 deg rotation - cart. axis [1,0,0]   

 cryst.   s(16) = (    -1          0          0      )
                  (     1          1          0      )
                  (     0          0          1      )

 cart.    s(16) = ( -1.0000000  0.0000000  0.0000000 )
                  (  0.0000000  1.0000000  0.0000000 )
                  (  0.0000000  0.0000000  1.0000000 )


      isym = 17     inv.  60 deg rotation - cryst. axis [0,0,1]  

 cryst.   s(17) = (    -1         -1          0      )
                  (     1          0          0      )
                  (     0          0         -1      )

 cart.    s(17) = ( -0.5000000  0.8660254  0.0000000 )
                  ( -0.8660254 -0.5000000  0.0000000 )
                  (  0.0000000  0.0000000 -1.0000000 )


      isym = 18     inv.  60 deg rotation - cryst. axis [0,0,-1] 

 cryst.   s(18) = (     0          1          0      )
                  (    -1         -1          0      )
                  (     0          0         -1      )

 cart.    s(18) = ( -0.5000000 -0.8660254  0.0000000 )
                  (  0.8660254 -0.5000000  0.0000000 )
                  (  0.0000000  0.0000000 -1.0000000 )


      isym = 19     inv. 120 deg rotation - cryst. axis [0,0,1]  

 cryst.   s(19) = (     0         -1          0      )
                  (     1          1          0      )
                  (     0          0         -1      )

 cart.    s(19) = (  0.5000000  0.8660254  0.0000000 )
                  ( -0.8660254  0.5000000  0.0000000 )
                  (  0.0000000  0.0000000 -1.0000000 )


      isym = 20     inv. 120 deg rotation - cryst. axis [0,0,-1] 

 cryst.   s(20) = (     1          1          0      )
                  (    -1          0          0      )
                  (     0          0         -1      )

 cart.    s(20) = (  0.5000000 -0.8660254  0.0000000 )
                  (  0.8660254  0.5000000  0.0000000 )
                  (  0.0000000  0.0000000 -1.0000000 )


      isym = 21     inv. 180 deg rotation - cryst. axis [1,-1,0] 

 cryst.   s(21) = (     0          1          0      )
                  (     1          0          0      )
                  (     0          0          1      )

 cart.    s(21) = ( -0.5000000  0.8660254  0.0000000 )
                  (  0.8660254  0.5000000  0.0000000 )
                  (  0.0000000  0.0000000  1.0000000 )


      isym = 22     inv. 180 deg rotation - cryst. axis [2,1,0]  

 cryst.   s(22) = (    -1         -1          0      )
                  (     0          1          0      )
                  (     0          0          1      )

 cart.    s(22) = ( -0.5000000 -0.8660254  0.0000000 )
                  ( -0.8660254  0.5000000  0.0000000 )
                  (  0.0000000  0.0000000  1.0000000 )


      isym = 23     inv. 180 deg rotation - cryst. axis [0,1,0]  

 cryst.   s(23) = (     1          1          0      )
                  (     0         -1          0      )
                  (     0          0          1      )

 cart.    s(23) = (  0.5000000  0.8660254  0.0000000 )
                  (  0.8660254 -0.5000000  0.0000000 )
                  (  0.0000000  0.0000000  1.0000000 )


      isym = 24     inv. 180 deg rotation - cryst. axis [1,1,0]  

 cryst.   s(24) = (     0         -1          0      )
                  (    -1          0          0      )
                  (     0          0          1      )

 cart.    s(24) = (  0.5000000 -0.8660254  0.0000000 )
                  ( -0.8660254 -0.5000000  0.0000000 )
                  (  0.0000000  0.0000000  1.0000000 )


     point group D_6h(6/mmm)
     there are 12 classes
     the character table:

       E     2C6   2C3   C2    3C2'  3C2'' i     2S3   2S6   s_h   3s_d  3s_v 
A_1g   1.00  1.00  1.00  1.00  1.00  1.00  1.00  1.00  1.00  1.00  1.00  1.00
A_2g   1.00  1.00  1.00  1.00 -1.00 -1.00  1.00  1.00  1.00  1.00 -1.00 -1.00
B_1g   1.00 -1.00  1.00 -1.00  1.00 -1.00  1.00 -1.00  1.00 -1.00  1.00 -1.00
B_2g   1.00 -1.00  1.00 -1.00 -1.00  1.00  1.00 -1.00  1.00 -1.00 -1.00  1.00
E_1g   2.00  1.00 -1.00 -2.00  0.00  0.00  2.00  1.00 -1.00 -2.00  0.00  0.00
E_2g   2.00 -1.00 -1.00  2.00  0.00  0.00  2.00 -1.00 -1.00  2.00  0.00  0.00
A_1u   1.00  1.00  1.00  1.00  1.00  1.00 -1.00 -1.00 -1.00 -1.00 -1.00 -1.00
A_2u   1.00  1.00  1.00  1.00 -1.00 -1.00 -1.00 -1.00 -1.00 -1.00  1.00  1.00
B_1u   1.00 -1.00  1.00 -1.00  1.00 -1.00 -1.00  1.00 -1.00  1.00 -1.00  1.00
B_2u   1.00 -1.00  1.00 -1.00 -1.00  1.00 -1.00  1.00 -1.00  1.00  1.00 -1.00
E_1u   2.00  1.00 -1.00 -2.00  0.00  0.00 -2.00 -1.00  1.00  2.00  0.00  0.00
E_2u   2.00 -1.00 -1.00  2.00  0.00  0.00 -2.00  1.00  1.00 -2.00  0.00  0.00

     the symmetry operations in each class and the name of the first element:

     E        1
          identity                                               
     2C6      5    6
           60 deg rotation - cryst. axis [0,0,1]                 
     2C3      7    8
          120 deg rotation - cryst. axis [0,0,1]                 
     C2       2
          180 deg rotation - cart. axis [0,0,1]                  
     3C2'     4   12   11
          180 deg rotation - cart. axis [1,0,0]                  
     3C2''    3    9   10
          180 deg rotation - cart. axis [0,1,0]                  
     i       13
          inversion                                              
     2S3     17   18
          inv.  60 deg rotation - cryst. axis [0,0,1]            
     2S6     19   20
          inv. 120 deg rotation - cryst. axis [0,0,1]            
     s_h     14
          inv. 180 deg rotation - cart. axis [0,0,1]             
     3s_d    16   24   23
          inv. 180 deg rotation - cart. axis [1,0,0]             
     3s_v    15   21   22
          inv. 180 deg rotation - cart. axis [0,1,0]             

   Cartesian axes

     site n.     atom                  positions (alat units)
         1           C   tau(   1) = (   0.0000000   0.5773503   2.0306218  )
         2           C   tau(   2) = (   0.5000000   0.2886751   2.0306218  )

   Crystallographic axes

     site n.     atom                  positions (cryst. coord.)
         1           C   tau(   1) = (  0.3333333  0.6666667  0.5000000  )
         2           C   tau(   2) = (  0.6666667  0.3333333  0.5000000  )

     number of k points=    19  Methfessel-Paxton smearing, width (Ry)=  0.0200
                       cart. coord. in units 2pi/alat
        k(    1) = (   0.0000000   0.0000000   0.0000000), wk =   0.0138889
        k(    2) = (   0.0000000   0.0962250   0.0000000), wk =   0.0833333
        k(    3) = (   0.0000000   0.1924501   0.0000000), wk =   0.0833333
        k(    4) = (   0.0000000   0.2886751   0.0000000), wk =   0.0833333
        k(    5) = (   0.0000000   0.3849002   0.0000000), wk =   0.0833333
        k(    6) = (   0.0000000   0.4811252   0.0000000), wk =   0.0833333
        k(    7) = (   0.0000000  -0.5773503   0.0000000), wk =   0.0416667
        k(    8) = (   0.0833333   0.1443376   0.0000000), wk =   0.0833333
        k(    9) = (   0.0833333   0.2405626   0.0000000), wk =   0.1666667
        k(   10) = (   0.0833333   0.3367877   0.0000000), wk =   0.1666667
        k(   11) = (   0.0833333   0.4330127   0.0000000), wk =   0.1666667
        k(   12) = (   0.0833333   0.5292377   0.0000000), wk =   0.1666667
        k(   13) = (   0.1666667   0.2886751   0.0000000), wk =   0.0833333
        k(   14) = (   0.1666667   0.3849002   0.0000000), wk =   0.1666667
        k(   15) = (   0.1666667   0.4811252   0.0000000), wk =   0.1666667
        k(   16) = (   0.1666667   0.5773503   0.0000000), wk =   0.0833333
        k(   17) = (   0.2500000   0.4330127   0.0000000), wk =   0.0833333
        k(   18) = (   0.2500000   0.5292377   0.0000000), wk =   0.1666667
        k(   19) = (   0.3333333   0.5773503   0.0000000), wk =   0.0277778

                       cryst. coord.
        k(    1) = (   0.0000000   0.0000000   0.0000000), wk =   0.0138889
        k(    2) = (   0.0000000   0.0833333   0.0000000), wk =   0.0833333
        k(    3) = (   0.0000000   0.1666667   0.0000000), wk =   0.0833333
        k(    4) = (   0.0000000   0.2500000   0.0000000), wk =   0.0833333
        k(    5) = (   0.0000000   0.3333333   0.0000000), wk =   0.0833333
        k(    6) = (   0.0000000   0.4166667   0.0000000), wk =   0.0833333
        k(    7) = (   0.0000000  -0.5000000   0.0000000), wk =   0.0416667
        k(    8) = (   0.0833333   0.0833333   0.0000000), wk =   0.0833333
        k(    9) = (   0.0833333   0.1666667   0.0000000), wk =   0.1666667
        k(   10) = (   0.0833333   0.2500000   0.0000000), wk =   0.1666667
        k(   11) = (   0.0833333   0.3333333   0.0000000), wk =   0.1666667
        k(   12) = (   0.0833333   0.4166667   0.0000000), wk =   0.1666667
        k(   13) = (   0.1666667   0.1666667   0.0000000), wk =   0.0833333
        k(   14) = (   0.1666667   0.2500000   0.0000000), wk =   0.1666667
        k(   15) = (   0.1666667   0.3333333   0.0000000), wk =   0.1666667
        k(   16) = (   0.1666667   0.4166667   0.0000000), wk =   0.0833333
        k(   17) = (   0.2500000   0.2500000   0.0000000), wk =   0.0833333
        k(   18) = (   0.2500000   0.3333333   0.0000000), wk =   0.1666667
        k(   19) = (   0.3333333   0.3333333   0.0000000), wk =   0.0277778

     Dense  grid:    18051 G-vectors     FFT dimensions: (  24,  24,  90)

     Dynamical RAM for                 wfc:       0.27 MB

     Dynamical RAM for     wfc (w. buffer):       5.48 MB

     Dynamical RAM for           str. fact:       0.28 MB

     Dynamical RAM for           local pot:       0.00 MB

     Dynamical RAM for          nlocal pot:       0.55 MB

     Dynamical RAM for                qrad:       0.49 MB

     Dynamical RAM for          rho,v,vnew:       2.01 MB

     Dynamical RAM for               rhoin:       0.67 MB

     Dynamical RAM for            rho*nmix:       4.41 MB

     Dynamical RAM for           G-vectors:       1.17 MB

     Dynamical RAM for          h,s,v(r/c):       0.05 MB

     Dynamical RAM for          <psi|beta>:       0.00 MB

     Dynamical RAM for                 psi:       1.10 MB

     Dynamical RAM for                hpsi:       1.10 MB

     Dynamical RAM for                spsi:       1.10 MB

     Dynamical RAM for      wfcinit/wfcrot:       0.55 MB

     Dynamical RAM for           addusdens:      12.39 MB

     Dynamical RAM for          addusforce:      13.08 MB

     Dynamical RAM for         addusstress:      13.77 MB

     Estimated static dynamical RAM per process >      17.58 MB

     Estimated max dynamical RAM per process >      31.35 MB

     Check: negative core charge=   -0.000003

     Initial potential from superposition of free atoms

     starting charge    7.99992, renormalised to    8.00000

     negative rho (up, down):  5.920E-05 0.000E+00
     Starting wfcs are    8 randomized atomic wfcs

     total cpu time spent up to now is        1.2 secs

     Self-consistent Calculation

     iteration #  1     ecut=    52.00 Ry     beta= 0.70
     Davidson diagonalization with overlap
     ethr =  1.00E-02,  avg # of iterations =  5.7

     total cpu time spent up to now is        2.1 secs

          k = 0.0000 0.0000 0.0000     band energies (ev):

   -23.8836 -10.9380  -7.8837  -7.8718   2.6378   3.7754   3.7755   4.3107

     occupation numbers 
     1.0000   1.0000   1.0000   1.0000  -0.0000  -0.0000  -0.0000  -0.0000

          k = 0.0000 0.0962 0.0000     band energies (ev):

   -23.7242 -10.7478  -8.5253  -8.2140   2.8522   3.8841   4.4368   4.5299

     occupation numbers 
     1.0000   1.0000   1.0000   1.0000  -0.0000  -0.0000  -0.0000  -0.0000

          k = 0.0000 0.1925 0.0000     band energies (ev):

   -23.2498 -10.2711 -10.1213  -8.9643   3.4742   3.9875   5.3061   6.2029

     occupation numbers 
     1.0000   1.0000   1.0000   1.0000  -0.0000  -0.0000  -0.0000  -0.0000

          k = 0.0000 0.2887 0.0000     band energies (ev):

   -22.4645 -12.2483  -9.7990  -9.2621   3.3686   3.7575   4.6623   6.8255

     occupation numbers 
     1.0000   1.0000   1.0000   1.0000  -0.0000  -0.0000  -0.0000  -0.0000

          k = 0.0000 0.3849 0.0000     band energies (ev):

   -21.3819 -14.3447 -10.5296  -8.0451   1.6619   3.5308   6.1583   8.1511

     occupation numbers 
     1.0000   1.0000   1.0000   1.0000  -0.0000  -0.0000  -0.0000  -0.0000

          k = 0.0000 0.4811 0.0000     band energies (ev):

   -20.0354 -16.3541 -10.8838  -6.6990  -0.3428   3.3487   8.0788  10.3915

     occupation numbers 
     1.0000   1.0000   1.0000   1.0000  -0.0000  -0.0000  -0.0000  -0.0000

          k = 0.0000-0.5774 0.0000     band energies (ev):

   -18.8333 -17.7840 -11.0266  -5.9188  -1.2657   3.2811  10.2011  10.4073

     occupation numbers 
     1.0000   1.0000   1.0000   1.0000  -0.0000  -0.0000  -0.0000  -0.0000

          k = 0.0833 0.1443 0.0000     band energies (ev):

   -23.4064 -10.3683  -9.7136  -8.8364   3.2834   4.2271   5.3286   5.7540

     occupation numbers 
     1.0000   1.0000   1.0000   1.0000  -0.0000  -0.0000  -0.0000  -0.0000

          k = 0.0833 0.2406 0.0000     band energies (ev):

   -22.7777 -11.3197  -9.8483  -9.6249   4.1284   4.1348   4.5532   6.8573

     occupation numbers 
     1.0000   1.0000   1.0000   1.0000  -0.0000  -0.0000  -0.0000  -0.0000

          k = 0.0833 0.3368 0.0000     band energies (ev):

   -21.8437 -13.2809 -10.6933  -8.5495   2.6043   4.2929   5.5216   8.4080

     occupation numbers 
     1.0000   1.0000   1.0000   1.0000  -0.0000  -0.0000  -0.0000  -0.0000

          k = 0.0833 0.4330 0.0000     band energies (ev):

   -20.6257 -15.3043 -11.2797  -7.2325   0.4724   4.1008   7.2252  10.1814

     occupation numbers 
     1.0000   1.0000   1.0000   1.0000  -0.0000  -0.0000  -0.0000  -0.0000

          k = 0.0833 0.5292 0.0000     band energies (ev):

   -19.2045 -17.1589 -11.4872  -6.0018  -1.1592   3.9732   9.3033  11.3231

     occupation numbers 
     1.0000   1.0000   1.0000   1.0000  -0.0000  -0.0000  -0.0000  -0.0000

          k = 0.1667 0.2887 0.0000     band energies (ev):

   -21.9987 -12.5952 -11.2829  -8.7201   2.9453   5.2241   5.7552   7.0901

     occupation numbers 
     1.0000   1.0000   1.0000   1.0000  -0.0000  -0.0000  -0.0000  -0.0000

          k = 0.1667 0.3849 0.0000     band energies (ev):

   -20.9271 -14.2353 -12.2859  -7.5169   1.0817   5.8978   6.8411   8.6074

     occupation numbers 
     1.0000   1.0000   1.0000   1.0000  -0.0000  -0.0000  -0.0000  -0.0000

          k = 0.1667 0.4811 0.0000     band energies (ev):

   -19.6020 -16.0520 -12.8440  -6.1614  -0.7408   5.7759   8.6626  10.5163

     occupation numbers 
     1.0000   1.0000   1.0000   1.0000  -0.0000  -0.0000  -0.0000  -0.0000

          k = 0.1667 0.5774 0.0000     band energies (ev):

   -18.4280 -17.4089 -13.0239  -5.3353  -1.7616   5.7088  10.3481  10.8635

     occupation numbers 
     1.0000   1.0000   1.0000   1.0000  -0.0000  -0.0000  -0.0000  -0.0000

          k = 0.2500 0.4330 0.0000     band energies (ev):

   -19.7440 -15.2413 -13.6680  -6.2348  -0.6342   7.8871   8.3182   8.6227

     occupation numbers 
     1.0000   1.0000   1.0000   1.0000  -0.0000  -0.0000  -0.0000  -0.0000

          k = 0.2500 0.5292 0.0000     band energies (ev):

   -18.3814 -16.5885 -14.3455  -4.9122  -2.1617   7.9801   9.8007  10.6759

     occupation numbers 
     1.0000   1.0000   1.0000   1.0000  -0.0000  -0.0000  -0.0000  -0.0000

          k = 0.3333 0.5774 0.0000     band energies (ev):

   -17.2232 -17.2229 -15.1661  -3.6171  -3.5125   9.5849   9.5887  11.4200

     occupation numbers 
     1.0000   1.0000   1.0000   0.6592   0.3408  -0.0000  -0.0000  -0.0000

     the Fermi energy is    -3.5648 ev

!    total energy              =     -36.84724562 Ry
     Harris-Foulkes estimate   =     -36.95788466 Ry
     estimated scf accuracy    <       0.17931101 Ry

     total all-electron energy =      -152.375448 Ry

     The total energy is the sum of the following terms:

     one-electron contribution =     -91.30934409 Ry
     hartree contribution      =      47.24102611 Ry
     xc contribution           =      -8.29109693 Ry
     ewald contribution        =      27.96304911 Ry
     scf correction            =       0.89290293 Ry
     one-center paw contrib.   =     -13.34364284 Ry
      -> PAW hartree energy AE =      18.63997507 Ry
      -> PAW hartree energy PS =     -18.60978895 Ry
      -> PAW xc energy AE      =     -21.19254885 Ry
      -> PAW xc energy PS      =       7.81871988 Ry
      -> total E_H with PAW    =      47.27121223 Ry
      -> total E_XC with PAW   =     -21.66492589 Ry
     smearing contrib. (-TS)   =      -0.00013990 Ry

     iteration #  2     ecut=    52.00 Ry     beta= 0.70
     Davidson diagonalization with overlap
     ethr =  2.24E-03,  avg # of iterations =  2.9

     negative rho (up, down):  3.327E-07 0.000E+00

     total cpu time spent up to now is        2.7 secs

          k = 0.0000 0.0000 0.0000     band energies (ev):

   -19.9544  -7.9925  -3.4601  -3.4575   2.5801   4.1918   7.9923   7.9931

     occupation numbers 
     1.0000   1.0000   1.0000   1.0000  -0.0000  -0.0000  -0.0000  -0.0000

          k = 0.0000 0.0962 0.0000     band energies (ev):

   -19.7897  -7.7961  -4.1057  -3.7980   2.8091   4.4152   8.0327   8.6876

     occupation numbers 
     1.0000   1.0000   1.0000   1.0000  -0.0000  -0.0000  -0.0000  -0.0000

          k = 0.0000 0.1925 0.0000     band energies (ev):

   -19.2972  -7.1705  -5.7233  -4.5910   3.4892   7.9765   9.0497  10.5312

     occupation numbers 
     1.0000   1.0000   1.0000   1.0000  -0.0000  -0.0000  -0.0000  -0.0000

          k = 0.0000 0.2887 0.0000     band energies (ev):

   -18.4828  -7.8197  -6.2428  -5.4683   4.6070   6.5358   7.0031   7.7253

     occupation numbers 
     1.0000   1.0000   1.0000   1.0000  -0.0000  -0.0000  -0.0000  -0.0000

          k = 0.0000 0.3849 0.0000     band energies (ev):

   -17.3595 -10.0263  -6.0971  -4.9716   4.5827   6.1913   7.3803   8.0336

     occupation numbers 
     1.0000   1.0000   1.0000   1.0000  -0.0000  -0.0000  -0.0000  -0.0000

          k = 0.0000 0.4811 0.0000     band energies (ev):

   -15.9612 -12.1377  -6.6781  -3.5371   2.4291   7.1248   8.2232  10.3184

     occupation numbers 
     1.0000   1.0000   1.0000   1.0000  -0.0000  -0.0000  -0.0000  -0.0000

          k = 0.0000-0.5774 0.0000     band energies (ev):

   -14.6952 -13.6616  -6.8415  -2.6811   1.3044   7.0377  10.8258  10.8873

     occupation numbers 
     1.0000   1.0000   1.0000   1.0000  -0.0000  -0.0000  -0.0000  -0.0000

          k = 0.0833 0.1443 0.0000     band energies (ev):

   -19.4612  -7.3559  -5.1200  -4.4760   3.2631   8.3087   9.5368   9.5706

     occupation numbers 
     1.0000   1.0000   1.0000   1.0000  -0.0000  -0.0000  -0.0000  -0.0000

          k = 0.0833 0.2406 0.0000     band energies (ev):

   -18.8085  -6.8363  -6.5867  -5.4750   4.2533   7.7977   8.4602  11.0143

     occupation numbers 
     1.0000   1.0000   1.0000   1.0000  -0.0000  -0.0000  -0.0000  -0.0000

          k = 0.0833 0.3368 0.0000     band energies (ev):

   -17.8398  -8.9015  -6.2730  -5.4760   5.4553   5.6276   8.0987   8.3553

     occupation numbers 
     1.0000   1.0000   1.0000   1.0000  -0.0000  -0.0000  -0.0000  -0.0000

          k = 0.0833 0.4330 0.0000     band energies (ev):

   -16.5777 -11.0363  -6.9947  -4.0928   3.4088   7.2361   7.9592  10.0401

     occupation numbers 
     1.0000   1.0000   1.0000   1.0000  -0.0000  -0.0000  -0.0000  -0.0000

          k = 0.0833 0.5292 0.0000     band energies (ev):

   -15.0939 -12.9935  -7.3245  -2.7916   1.5983   7.7802   9.6555  12.7910

     occupation numbers 
     1.0000   1.0000   1.0000   1.0000  -0.0000  -0.0000  -0.0000  -0.0000

          k = 0.1667 0.2887 0.0000     band energies (ev):

   -18.0004  -8.1584  -6.8199  -5.6545   5.5181   6.0344   9.6571  11.2541

     occupation numbers 
     1.0000   1.0000   1.0000   1.0000  -0.0000  -0.0000  -0.0000  -0.0000

          k = 0.1667 0.3849 0.0000     band energies (ev):

   -16.8887  -9.8920  -7.8786  -4.3990   4.1098   6.9139   9.8934  12.6753

     occupation numbers 
     1.0000   1.0000   1.0000   1.0000  -0.0000  -0.0000  -0.0000  -0.0000

          k = 0.1667 0.4811 0.0000     band energies (ev):

   -15.5107 -11.8185  -8.4562  -2.9710   2.1765   8.9263   9.6940  14.0305

     occupation numbers 
     1.0000   1.0000   1.0000   1.0000  -0.0000  -0.0000  -0.0000  -0.0000

          k = 0.1667 0.5774 0.0000     band energies (ev):

   -14.2742 -13.2663  -8.6438  -2.0768   1.0880   9.5878  11.2815  12.1735

     occupation numbers 
     1.0000   1.0000   1.0000   1.0000  -0.0000  -0.0000  -0.0000  -0.0000

          k = 0.2500 0.4330 0.0000     band energies (ev):

   -15.6576 -10.9327  -9.3690  -3.0498   2.4711   8.7247  11.8916  12.3972

     occupation numbers 
     1.0000   1.0000   1.0000   1.0000  -0.0000  -0.0000  -0.0000  -0.0000

          k = 0.2500 0.5292 0.0000     band energies (ev):

   -14.2359 -12.3708 -10.0851  -1.6661   0.9382  10.7479  11.8926  12.8204

     occupation numbers 
     1.0000   1.0000   1.0000   1.0000  -0.0000  -0.0000  -0.0000  -0.0000

          k = 0.3333 0.5774 0.0000     band energies (ev):

   -13.0152 -13.0150 -10.9922  -0.3681  -0.3667  12.4648  12.4745  13.0281

     occupation numbers 
     1.0000   1.0000   1.0000   0.5023   0.4977  -0.0000  -0.0000  -0.0000

     the Fermi energy is    -0.3674 ev

!    total energy              =     -36.87059592 Ry
     Harris-Foulkes estimate   =     -36.87398860 Ry
     estimated scf accuracy    <       0.00638923 Ry

     total all-electron energy =      -152.398799 Ry

     The total energy is the sum of the following terms:

     one-electron contribution =     -90.97249365 Ry
     hartree contribution      =      47.73423569 Ry
     xc contribution           =      -8.36252771 Ry
     ewald contribution        =      27.96304911 Ry
     scf correction            =       0.08048996 Ry
     one-center paw contrib.   =     -13.31319261 Ry
      -> PAW hartree energy AE =      22.81599393 Ry
      -> PAW hartree energy PS =     -22.78542232 Ry
      -> PAW xc energy AE      =     -22.10468454 Ry
      -> PAW xc energy PS      =       8.76092033 Ry
      -> total E_H with PAW    =      47.76480730 Ry
      -> total E_XC with PAW   =     -21.70629193 Ry
     smearing contrib. (-TS)   =      -0.00015672 Ry

     iteration #  3     ecut=    52.00 Ry     beta= 0.70
     Davidson diagonalization with overlap
     ethr =  7.99E-05,  avg # of iterations =  8.3

     negative rho (up, down):  4.442E-07 0.000E+00

     total cpu time spent up to now is        3.8 secs

          k = 0.0000 0.0000 0.0000     band energies (ev):

   -19.1588  -7.4489  -2.5103  -2.5102   2.5094   4.1599   5.1787   8.8033

     occupation numbers 
     1.0000   1.0000   1.0000   1.0000  -0.0000  -0.0000  -0.0000  -0.0000

          k = 0.0000 0.0962 0.0000     band energies (ev):

   -18.9934  -7.2511  -3.1718  -2.8541   2.7351   4.3828   5.4005   8.8603

     occupation numbers 
     1.0000   1.0000   1.0000   1.0000  -0.0000  -0.0000  -0.0000  -0.0000

          k = 0.0000 0.1925 0.0000     band energies (ev):

   -18.4993  -6.6628  -4.8335  -3.6572   3.4122   5.0553   6.0656   8.7853

     occupation numbers 
     1.0000   1.0000   1.0000   1.0000  -0.0000  -0.0000  -0.0000  -0.0000

          k = 0.0000 0.2887 0.0000     band energies (ev):

   -17.6819  -6.9586  -5.7026  -4.5466   4.5395   6.1355   7.1701   7.6266

     occupation numbers 
     1.0000   1.0000   1.0000   1.0000  -0.0000  -0.0000  -0.0000  -0.0000

          k = 0.0000 0.3849 0.0000     band energies (ev):

   -16.5533  -9.1869  -5.2868  -4.4199   5.1972   6.1135   7.7483   8.0969

     occupation numbers 
     1.0000   1.0000   1.0000   1.0000  -0.0000  -0.0000  -0.0000  -0.0000

          k = 0.0000 0.4811 0.0000     band energies (ev):

   -15.1443 -11.3097  -5.7636  -2.9755   3.0269   7.8500   8.1539   9.7021

     occupation numbers 
     1.0000   1.0000   1.0000   1.0000  -0.0000  -0.0000  -0.0000  -0.0000

          k = 0.0000-0.5774 0.0000     band energies (ev):

   -13.8633 -12.8366  -5.9264  -2.1111   1.9047   7.7813  10.5268  10.6233

     occupation numbers 
     1.0000   1.0000   1.0000   1.0000  -0.0000  -0.0000  -0.0000  -0.0000

          k = 0.0833 0.1443 0.0000     band energies (ev):

   -18.6637  -6.8579  -4.2193  -3.5433   3.1866   4.8281   5.8460   9.1464

     occupation numbers 
     1.0000   1.0000   1.0000   1.0000  -0.0000  -0.0000  -0.0000  -0.0000

          k = 0.0833 0.2406 0.0000     band energies (ev):

   -18.0080  -6.0825  -5.9515  -4.5555   4.0892   5.7158   6.7326   8.4630

     occupation numbers 
     1.0000   1.0000   1.0000   1.0000  -0.0000  -0.0000  -0.0000  -0.0000

          k = 0.0833 0.3368 0.0000     band energies (ev):

   -17.0348  -8.0500  -5.4510  -4.9548   5.4403   6.2211   7.0943   8.0510

     occupation numbers 
     1.0000   1.0000   1.0000   1.0000  -0.0000  -0.0000  -0.0000  -0.0000

          k = 0.0833 0.4330 0.0000     band energies (ev):

   -15.7630 -10.1968  -6.0912  -3.5575   4.0001   7.2343   8.6997   8.8090

     occupation numbers 
     1.0000   1.0000   1.0000   1.0000  -0.0000  -0.0000  -0.0000  -0.0000

          k = 0.0833 0.5292 0.0000     band energies (ev):

   -14.2677 -12.1605  -6.4222  -2.2237   2.1953   8.5294   9.4724  11.9581

     occupation numbers 
     1.0000   1.0000   1.0000   1.0000  -0.0000  -0.0000  -0.0000  -0.0000

          k = 0.1667 0.2887 0.0000     band energies (ev):

   -17.1964  -7.2933  -5.9413  -5.1358   5.2158   6.7197   6.8135   7.8404

     occupation numbers 
     1.0000   1.0000   1.0000   1.0000  -0.0000  -0.0000  -0.0000  -0.0000

          k = 0.1667 0.3849 0.0000     band energies (ev):

   -16.0786  -9.0413  -7.0099  -3.8682   4.7411   6.7879   8.3083   9.3800

     occupation numbers 
     1.0000   1.0000   1.0000   1.0000  -0.0000  -0.0000  -0.0000  -0.0000

          k = 0.1667 0.4811 0.0000     band energies (ev):

   -14.6893 -10.9754  -7.5898  -2.4205   2.7954   8.7945  10.1209  10.4403

     occupation numbers 
     1.0000   1.0000   1.0000   1.0000  -0.0000  -0.0000  -0.0000  -0.0000

          k = 0.1667 0.5774 0.0000     band energies (ev):

   -13.4377 -12.4310  -7.7758  -1.5086   1.7052  10.3528  11.1439  11.2661

     occupation numbers 
     1.0000   1.0000   1.0000   1.0000  -0.0000  -0.0000  -0.0000  -0.0000

          k = 0.2500 0.4330 0.0000     band energies (ev):

   -14.8385 -10.0831  -8.5176  -2.5082   3.1142   8.5717   9.8103  11.1223

     occupation numbers 
     1.0000   1.0000   1.0000   1.0000  -0.0000  -0.0000  -0.0000  -0.0000

          k = 0.2500 0.5292 0.0000     band energies (ev):

   -13.4003 -11.5233  -9.2321  -1.1010   1.5744  10.7546  10.7805  12.5628

     occupation numbers 
     1.0000   1.0000   1.0000   1.0000  -0.0000  -0.0000  -0.0000  -0.0000

          k = 0.3333 0.5774 0.0000     band energies (ev):

   -12.1676 -12.1676 -10.1472   0.2698   0.2698  10.4983  12.7355  12.7360

     occupation numbers 
     1.0000   1.0000   1.0000   0.5000   0.5000  -0.0000  -0.0000  -0.0000

     the Fermi energy is     0.2698 ev

!    total energy              =     -36.89037548 Ry
     Harris-Foulkes estimate   =     -36.89161461 Ry
     estimated scf accuracy    <       0.00709555 Ry

     total all-electron energy =      -152.418578 Ry

     The total energy is the sum of the following terms:

     one-electron contribution =     -90.23421928 Ry
     hartree contribution      =      47.62701074 Ry
     xc contribution           =      -8.34793176 Ry
     ewald contribution        =      27.96304911 Ry
     scf correction            =      -0.58506165 Ry
     one-center paw contrib.   =     -13.31306593 Ry
      -> PAW hartree energy AE =      22.61172140 Ry
      -> PAW hartree energy PS =     -22.58130244 Ry
      -> PAW xc energy AE      =     -22.05976590 Ry
      -> PAW xc energy PS      =       8.71628101 Ry
      -> total E_H with PAW    =      47.65742969 Ry
      -> total E_XC with PAW   =     -21.69141664 Ry
     smearing contrib. (-TS)   =      -0.00015672 Ry

     iteration #  4     ecut=    52.00 Ry     beta= 0.70
     Davidson diagonalization with overlap
     ethr =  7.99E-05,  avg # of iterations =  1.6

     negative rho (up, down):  4.900E-05 0.000E+00

     total cpu time spent up to now is        4.3 secs

          k = 0.0000 0.0000 0.0000     band energies (ev):

   -19.3323  -7.5783  -2.7142  -2.7142   2.5205   4.1648   5.1904   8.6173

     occupation numbers 
     1.0000   1.0000   1.0000   1.0000  -0.0000  -0.0000  -0.0000  -0.0000

          k = 0.0000 0.0962 0.0000     band energies (ev):

   -19.1672  -7.3807  -3.3735  -3.0571   2.7460   4.3875   5.4119   8.6767

     occupation numbers 
     1.0000   1.0000   1.0000   1.0000  -0.0000  -0.0000  -0.0000  -0.0000

          k = 0.0000 0.1925 0.0000     band energies (ev):

   -18.6736  -6.7932  -5.0306  -3.8583   3.4225   5.0571   6.0761   8.6080

     occupation numbers 
     1.0000   1.0000   1.0000   1.0000  -0.0000  -0.0000  -0.0000  -0.0000

          k = 0.0000 0.2887 0.0000     band energies (ev):

   -17.8573  -7.1507  -5.8345  -4.7461   4.5488   6.1361   7.1781   7.4755

     occupation numbers 
     1.0000   1.0000   1.0000   1.0000  -0.0000  -0.0000  -0.0000  -0.0000

          k = 0.0000 0.3849 0.0000     band energies (ev):

   -16.7302  -9.3747  -5.4852  -4.5541   5.0533   6.1210   7.7478   7.9361

     occupation numbers 
     1.0000   1.0000   1.0000   1.0000  -0.0000  -0.0000  -0.0000  -0.0000

          k = 0.0000 0.4811 0.0000     band energies (ev):

   -15.3232 -11.4938  -5.9615  -3.1133   2.8883   7.6893   8.1538   9.6997

     occupation numbers 
     1.0000   1.0000   1.0000   1.0000  -0.0000  -0.0000  -0.0000  -0.0000

          k = 0.0000-0.5774 0.0000     band energies (ev):

   -14.0445 -13.0177  -6.1244  -2.2523   1.7697   7.6151  10.5260  10.6276

     occupation numbers 
     1.0000   1.0000   1.0000   1.0000  -0.0000  -0.0000  -0.0000  -0.0000

          k = 0.0833 0.1443 0.0000     band energies (ev):

   -18.8379  -6.9880  -4.4183  -3.7442   3.1971   4.8322   5.8556   8.9654

     occupation numbers 
     1.0000   1.0000   1.0000   1.0000  -0.0000  -0.0000  -0.0000  -0.0000

          k = 0.0833 0.2406 0.0000     band energies (ev):

   -18.1829  -6.2138  -6.1462  -4.7539   4.0989   5.7173   6.7431   8.3050

     occupation numbers 
     1.0000   1.0000   1.0000   1.0000  -0.0000  -0.0000  -0.0000  -0.0000

          k = 0.0833 0.3368 0.0000     band energies (ev):

   -17.2111  -8.2402  -5.6478  -5.0879   5.4488   6.0786   7.0856   8.0574

     occupation numbers 
     1.0000   1.0000   1.0000   1.0000  -0.0000  -0.0000  -0.0000  -0.0000

          k = 0.0833 0.4330 0.0000     band energies (ev):

   -15.9410 -10.3829  -6.2871  -3.6934   3.8569   7.2405   8.5332   8.8078

     occupation numbers 
     1.0000   1.0000   1.0000   1.0000  -0.0000  -0.0000  -0.0000  -0.0000

          k = 0.0833 0.5292 0.0000     band energies (ev):

   -14.4480 -12.3432  -6.6178  -2.3639   2.0580   8.3614   9.4736  10.8968

     occupation numbers 
     1.0000   1.0000   1.0000   1.0000  -0.0000  -0.0000  -0.0000  -0.0000

          k = 0.1667 0.2887 0.0000     band energies (ev):

   -17.3724  -7.4858  -6.1355  -5.2685   5.2247   6.5655   6.8147   7.8509

     occupation numbers 
     1.0000   1.0000   1.0000   1.0000  -0.0000  -0.0000  -0.0000  -0.0000

          k = 0.1667 0.3849 0.0000     band energies (ev):

   -16.2561  -9.2302  -7.2019  -4.0032   4.5920   6.7951   8.3066   9.3887

     occupation numbers 
     1.0000   1.0000   1.0000   1.0000  -0.0000  -0.0000  -0.0000  -0.0000

          k = 0.1667 0.4811 0.0000     band energies (ev):

   -14.8689 -11.1605  -7.7812  -2.5590   2.6518   8.7985  10.1083  10.2723

     occupation numbers 
     1.0000   1.0000   1.0000   1.0000  -0.0000  -0.0000  -0.0000  -0.0000

          k = 0.1667 0.5774 0.0000     band energies (ev):

   -13.6197 -12.6130  -7.9670  -1.6504   1.5638  10.1826  11.1378  11.2663

     occupation numbers 
     1.0000   1.0000   1.0000   1.0000  -0.0000  -0.0000  -0.0000  -0.0000

          k = 0.2500 0.4330 0.0000     band energies (ev):

   -15.0179 -10.2707  -8.7056  -2.6461   2.9665   8.5762   9.7986  11.1298

     occupation numbers 
     1.0000   1.0000   1.0000   1.0000  -0.0000  -0.0000  -0.0000  -0.0000

          k = 0.2500 0.5292 0.0000     band energies (ev):

   -13.5821 -11.7079  -9.4190  -1.2424   1.4294  10.6788  10.7511  12.4052

     occupation numbers 
     1.0000   1.0000   1.0000   1.0000  -0.0000  -0.0000  -0.0000  -0.0000

          k = 0.3333 0.5774 0.0000     band energies (ev):

   -12.3518 -12.3518 -10.3312   0.1261   0.1261  10.4327  12.6829  12.6854

     occupation numbers 
     1.0000   1.0000   1.0000   0.5000   0.5000  -0.0000  -0.0000  -0.0000

     the Fermi energy is     0.1261 ev

!    total energy              =     -36.88721676 Ry
     Harris-Foulkes estimate   =     -36.89040665 Ry
     estimated scf accuracy    <       0.00485905 Ry

     total all-electron energy =      -152.415420 Ry

     The total energy is the sum of the following terms:

     one-electron contribution =     -90.26259342 Ry
     hartree contribution      =      47.09844653 Ry
     xc contribution           =      -8.27774780 Ry
     ewald contribution        =      27.96304911 Ry
     scf correction            =      -0.10078144 Ry
     one-center paw contrib.   =     -13.30743302 Ry
      -> PAW hartree energy AE =      22.01343179 Ry
      -> PAW hartree energy PS =     -21.98392765 Ry
      -> PAW xc energy AE      =     -21.92380672 Ry
      -> PAW xc energy PS      =       8.58686957 Ry
      -> total E_H with PAW    =      47.12795067 Ry
      -> total E_XC with PAW   =     -21.61468496 Ry
     smearing contrib. (-TS)   =      -0.00015672 Ry

     iteration #  5     ecut=    52.00 Ry     beta= 0.70
     Davidson diagonalization with overlap
     ethr =  6.07E-05,  avg # of iterations =  3.7

     negative rho (up, down):  3.314E-05 0.000E+00

     total cpu time spent up to now is        4.9 secs

          k = 0.0000 0.0000 0.0000     band energies (ev):

   -20.1930  -8.2244  -3.7253  -3.7252   2.6166   4.2681   5.2527   7.6905

     occupation numbers 
     1.0000   1.0000   1.0000   1.0000  -0.0000  -0.0000  -0.0000  -0.0000

          k = 0.0000 0.0962 0.0000     band energies (ev):

   -20.0289  -8.0281  -4.3735  -4.0635   2.8410   4.4902   5.4732   7.7616

     occupation numbers 
     1.0000   1.0000   1.0000   1.0000  -0.0000  -0.0000  -0.0000  -0.0000

          k = 0.0000 0.1925 0.0000     band energies (ev):

   -19.5385  -7.4420  -6.0073  -4.8557   3.5140   5.1593   6.1338   7.7284

     occupation numbers 
     1.0000   1.0000   1.0000   1.0000  -0.0000  -0.0000  -0.0000  -0.0000

          k = 0.0000 0.2887 0.0000     band energies (ev):

   -18.7274  -8.1040  -6.4930  -5.7358   4.6341   6.1858   6.7580   7.2268

     occupation numbers 
     1.0000   1.0000   1.0000   1.0000  -0.0000  -0.0000  -0.0000  -0.0000

          k = 0.0000 0.3849 0.0000     band energies (ev):

   -17.6078 -10.3066  -6.4700  -5.2240   4.3334   6.1895   7.1201   7.8226

     occupation numbers 
     1.0000   1.0000   1.0000   1.0000  -0.0000  -0.0000  -0.0000  -0.0000

          k = 0.0000 0.4811 0.0000     band energies (ev):

   -16.2106 -12.4075  -6.9434  -3.8012   2.1971   6.8696   8.2129   9.7587

     occupation numbers 
     1.0000   1.0000   1.0000   1.0000  -0.0000  -0.0000  -0.0000  -0.0000

          k = 0.0000-0.5774 0.0000     band energies (ev):

   -14.9440 -13.9170  -7.1064  -2.9574   1.0993   6.7913  10.5445  10.6808

     occupation numbers 
     1.0000   1.0000   1.0000   1.0000  -0.0000  -0.0000  -0.0000  -0.0000

          k = 0.0833 0.1443 0.0000     band energies (ev):

   -19.7016  -7.6352  -5.4045  -4.7405   3.2899   4.9401   5.9151   8.0655

     occupation numbers 
     1.0000   1.0000   1.0000   1.0000  -0.0000  -0.0000  -0.0000  -0.0000

          k = 0.0833 0.2406 0.0000     band energies (ev):

   -19.0509  -7.1117  -6.8669  -5.7381   4.1872   5.8159   6.7998   7.5231

     occupation numbers 
     1.0000   1.0000   1.0000   1.0000  -0.0000  -0.0000  -0.0000  -0.0000

          k = 0.0833 0.3368 0.0000     band energies (ev):

   -18.0854  -9.1836  -6.6247  -5.7525   5.3506   5.5287   7.1515   7.8879

     occupation numbers 
     1.0000   1.0000   1.0000   1.0000  -0.0000  -0.0000  -0.0000  -0.0000

          k = 0.0833 0.4330 0.0000     band energies (ev):

   -16.8240 -11.3060  -7.2600  -4.3724   3.1427   7.2887   7.7215   8.8676

     occupation numbers 
     1.0000   1.0000   1.0000   1.0000  -0.0000  -0.0000  -0.0000  -0.0000

          k = 0.0833 0.5292 0.0000     band energies (ev):

   -15.3427 -13.2487  -7.5884  -3.0614   1.3754   7.5289   9.5263  10.9157

     occupation numbers 
     1.0000   1.0000   1.0000   1.0000  -0.0000  -0.0000  -0.0000  -0.0000

          k = 0.1667 0.2887 0.0000     band energies (ev):

   -18.2457  -8.4412  -7.1003  -5.9314   5.3071   5.8000   6.8977   7.9071

     occupation numbers 
     1.0000   1.0000   1.0000   1.0000  -0.0000  -0.0000  -0.0000  -0.0000

          k = 0.1667 0.3849 0.0000     band energies (ev):

   -17.1371 -10.1667  -8.1562  -4.6762   3.8523   6.8672   8.3794   9.4337

     occupation numbers 
     1.0000   1.0000   1.0000   1.0000  -0.0000  -0.0000  -0.0000  -0.0000

          k = 0.1667 0.4811 0.0000     band energies (ev):

   -15.7600 -12.0791  -8.7318  -3.2487   1.9383   8.8414   9.4410  10.1031

     occupation numbers 
     1.0000   1.0000   1.0000   1.0000  -0.0000  -0.0000  -0.0000  -0.0000

          k = 0.1667 0.5774 0.0000     band energies (ev):

   -14.5228 -13.5168  -8.9161  -2.3543   0.8710   9.3375  11.1182  11.2979

     occupation numbers 
     1.0000   1.0000   1.0000   1.0000  -0.0000  -0.0000  -0.0000  -0.0000

          k = 0.2500 0.4330 0.0000     band energies (ev):

   -15.9078 -11.2016  -9.6383  -3.3343   2.2338   8.6310   9.7735  11.1720

     occupation numbers 
     1.0000   1.0000   1.0000   1.0000  -0.0000  -0.0000  -0.0000  -0.0000

          k = 0.2500 0.5292 0.0000     band energies (ev):

   -14.4841 -12.6240 -10.3467  -1.9483   0.7122  10.4146  10.7496  11.6150

     occupation numbers 
     1.0000   1.0000   1.0000   1.0000  -0.0000  -0.0000  -0.0000  -0.0000

          k = 0.3333 0.5774 0.0000     band energies (ev):

   -13.2656 -13.2656 -11.2436  -0.5871  -0.5871  10.1152  12.3490  12.3492

     occupation numbers 
     1.0000   1.0000   1.0000   0.5000   0.5000  -0.0000  -0.0000  -0.0000

     the Fermi energy is    -0.5871 ev

!    total energy              =     -36.88826083 Ry
     Harris-Foulkes estimate   =     -36.88838213 Ry
     estimated scf accuracy    <       0.00020629 Ry

     total all-electron energy =      -152.416464 Ry

     The total energy is the sum of the following terms:

     one-electron contribution =     -90.46920883 Ry
     hartree contribution      =      47.17355404 Ry
     xc contribution           =      -8.28852548 Ry
     ewald contribution        =      27.96304911 Ry
     scf correction            =       0.04055606 Ry
     one-center paw contrib.   =     -13.30752901 Ry
      -> PAW hartree energy AE =      22.19675601 Ry
      -> PAW hartree energy PS =     -22.16711311 Ry
      -> PAW xc energy AE      =     -21.96449954 Ry
      -> PAW xc energy PS      =       8.62732762 Ry
      -> total E_H with PAW    =      47.20319694 Ry
      -> total E_XC with PAW   =     -21.62569739 Ry
     smearing contrib. (-TS)   =      -0.00015672 Ry

     iteration #  6     ecut=    52.00 Ry     beta= 0.70
     Davidson diagonalization with overlap
     ethr =  2.58E-06,  avg # of iterations =  4.2

     negative rho (up, down):  3.429E-05 0.000E+00

     total cpu time spent up to now is        5.7 secs

          k = 0.0000 0.0000 0.0000     band energies (ev):

   -20.0702  -8.1347  -3.5796  -3.5796   2.5986   4.2454   5.2441   7.8211

     occupation numbers 
     1.0000   1.0000   1.0000   1.0000  -0.0000  -0.0000  -0.0000  -0.0000

          k = 0.0000 0.0962 0.0000     band energies (ev):

   -19.9059  -7.9382  -4.2298  -3.9186   2.8232   4.4676   5.4647   7.8918

     occupation numbers 
     1.0000   1.0000   1.0000   1.0000  -0.0000  -0.0000  -0.0000  -0.0000

          k = 0.0000 0.1925 0.0000     band energies (ev):

   -19.4150  -7.3541  -5.8674  -4.7124   3.4967   5.1310   6.1257   7.8530

     occupation numbers 
     1.0000   1.0000   1.0000   1.0000  -0.0000  -0.0000  -0.0000  -0.0000

          k = 0.0000 0.2887 0.0000     band energies (ev):

   -18.6031  -7.9672  -6.4015  -5.5938   4.6175   6.1770   6.8476   7.1836

     occupation numbers 
     1.0000   1.0000   1.0000   1.0000  -0.0000  -0.0000  -0.0000  -0.0000

          k = 0.0000 0.3849 0.0000     band energies (ev):

   -17.4824 -10.1730  -6.3286  -5.1308   4.4339   6.1767   7.2359   7.8039

     occupation numbers 
     1.0000   1.0000   1.0000   1.0000  -0.0000  -0.0000  -0.0000  -0.0000

          k = 0.0000 0.4811 0.0000     band energies (ev):

   -16.0838 -12.2766  -6.8025  -3.7055   2.2926   6.9865   8.1994   9.7423

     occupation numbers 
     1.0000   1.0000   1.0000   1.0000  -0.0000  -0.0000  -0.0000  -0.0000

          k = 0.0000-0.5774 0.0000     band energies (ev):

   -14.8152 -13.7881  -6.9651  -2.8593   1.1926   6.9085  10.5378  10.6705

     occupation numbers 
     1.0000   1.0000   1.0000   1.0000  -0.0000  -0.0000  -0.0000  -0.0000

          k = 0.0833 0.1443 0.0000     band energies (ev):

   -19.5783  -7.5478  -5.2630  -4.5971   3.2724   4.9107   5.9067   8.1932

     occupation numbers 
     1.0000   1.0000   1.0000   1.0000  -0.0000  -0.0000  -0.0000  -0.0000

          k = 0.0833 0.2406 0.0000     band energies (ev):

   -18.9270  -6.9734  -6.7783  -5.5969   4.1703   5.7892   6.7892   7.6304

     occupation numbers 
     1.0000   1.0000   1.0000   1.0000  -0.0000  -0.0000  -0.0000  -0.0000

          k = 0.0833 0.3368 0.0000     band energies (ev):

   -17.9605  -9.0485  -6.4845  -5.6602   5.4513   5.5133   7.1319   7.9639

     occupation numbers 
     1.0000   1.0000   1.0000   1.0000  -0.0000  -0.0000  -0.0000  -0.0000

          k = 0.0833 0.4330 0.0000     band energies (ev):

   -16.6978 -11.1743  -7.1203  -4.2779   3.2420   7.2821   7.8320   8.8506

     occupation numbers 
     1.0000   1.0000   1.0000   1.0000  -0.0000  -0.0000  -0.0000  -0.0000

          k = 0.0833 0.5292 0.0000     band energies (ev):

   -15.2147 -13.1199  -7.4493  -2.9662   1.4690   7.6472   9.5118  10.9054

     occupation numbers 
     1.0000   1.0000   1.0000   1.0000  -0.0000  -0.0000  -0.0000  -0.0000

          k = 0.1667 0.2887 0.0000     band energies (ev):

   -18.1210  -8.3037  -6.9613  -5.8393   5.2912   5.9058   6.8771   7.8985

     occupation numbers 
     1.0000   1.0000   1.0000   1.0000  -0.0000  -0.0000  -0.0000  -0.0000

          k = 0.1667 0.3849 0.0000     band energies (ev):

   -17.0111 -10.0332  -8.0189  -4.5839   3.9526   6.8526   8.3569   9.3961

     occupation numbers 
     1.0000   1.0000   1.0000   1.0000  -0.0000  -0.0000  -0.0000  -0.0000

          k = 0.1667 0.4811 0.0000     band energies (ev):

   -15.6325 -11.9475  -8.5952  -3.1543   2.0355   8.8331   9.5578  10.0987

     occupation numbers 
     1.0000   1.0000   1.0000   1.0000  -0.0000  -0.0000  -0.0000  -0.0000

          k = 0.1667 0.5774 0.0000     band energies (ev):

   -14.3935 -13.3873  -8.7801  -2.2598   0.9650   9.4580  11.1179  11.2914

     occupation numbers 
     1.0000   1.0000   1.0000   1.0000  -0.0000  -0.0000  -0.0000  -0.0000

          k = 0.2500 0.4330 0.0000     band energies (ev):

   -15.7806 -11.0683  -9.5057  -3.2385   2.3338   8.6188   9.7715  11.1482

     occupation numbers 
     1.0000   1.0000   1.0000   1.0000  -0.0000  -0.0000  -0.0000  -0.0000

          k = 0.2500 0.5292 0.0000     band energies (ev):

   -14.3550 -12.4929 -10.2139  -1.8499   0.8100  10.4504  10.7477  11.7271

     occupation numbers 
     1.0000   1.0000   1.0000   1.0000  -0.0000  -0.0000  -0.0000  -0.0000

          k = 0.3333 0.5774 0.0000     band energies (ev):

   -13.1346 -13.1346 -11.1143  -0.4911  -0.4911  10.1595  12.4017  12.4017

     occupation numbers 
     1.0000   1.0000   1.0000   0.5000   0.5000  -0.0000  -0.0000  -0.0000

     the Fermi energy is    -0.4911 ev

!    total energy              =     -36.88856622 Ry
     Harris-Foulkes estimate   =     -36.88855106 Ry
     estimated scf accuracy    <       0.00008323 Ry

     total all-electron energy =      -152.416769 Ry

     The total energy is the sum of the following terms:

     one-electron contribution =     -90.49144495 Ry
     hartree contribution      =      47.16424949 Ry
     xc contribution           =      -8.28716358 Ry
     ewald contribution        =      27.96304911 Ry
     scf correction            =       0.07046005 Ry
     one-center paw contrib.   =     -13.30755963 Ry
      -> PAW hartree energy AE =      22.16981617 Ry
      -> PAW hartree energy PS =     -22.14019018 Ry
      -> PAW xc energy AE      =     -21.95856534 Ry
      -> PAW xc energy PS      =       8.62137972 Ry
      -> total E_H with PAW    =      47.19387549 Ry
      -> total E_XC with PAW   =     -21.62434920 Ry
     smearing contrib. (-TS)   =      -0.00015672 Ry

     iteration #  7     ecut=    52.00 Ry     beta= 0.70
     Davidson diagonalization with overlap
     ethr =  1.04E-06,  avg # of iterations =  1.7

     negative rho (up, down):  2.820E-05 0.000E+00

     total cpu time spent up to now is        6.2 secs

          k = 0.0000 0.0000 0.0000     band energies (ev):

   -20.0853  -8.1455  -3.5978  -3.5978   2.6012   4.2486   5.2451   7.8047

     occupation numbers 
     1.0000   1.0000   1.0000   1.0000  -0.0000  -0.0000  -0.0000  -0.0000

          k = 0.0000 0.0962 0.0000     band energies (ev):

   -19.9211  -7.9491  -4.2478  -3.9367   2.8257   4.4708   5.4657   7.8753

     occupation numbers 
     1.0000   1.0000   1.0000   1.0000  -0.0000  -0.0000  -0.0000  -0.0000

          k = 0.0000 0.1925 0.0000     band energies (ev):

   -19.4302  -7.3650  -5.8850  -4.7304   3.4992   5.1342   6.1265   7.8375

     occupation numbers 
     1.0000   1.0000   1.0000   1.0000  -0.0000  -0.0000  -0.0000  -0.0000

          k = 0.0000 0.2887 0.0000     band energies (ev):

   -18.6185  -7.9842  -6.4125  -5.6117   4.6199   6.1786   6.8360   7.1822

     occupation numbers 
     1.0000   1.0000   1.0000   1.0000  -0.0000  -0.0000  -0.0000  -0.0000

          k = 0.0000 0.3849 0.0000     band energies (ev):

   -17.4979 -10.1896  -6.3463  -5.1421   4.4216   6.1786   7.2216   7.8066

     occupation numbers 
     1.0000   1.0000   1.0000   1.0000  -0.0000  -0.0000  -0.0000  -0.0000

          k = 0.0000 0.4811 0.0000     band energies (ev):

   -16.0995 -12.2928  -6.8201  -3.7171   2.2809   6.9721   8.2013   9.7447

     occupation numbers 
     1.0000   1.0000   1.0000   1.0000  -0.0000  -0.0000  -0.0000  -0.0000

          k = 0.0000-0.5774 0.0000     band energies (ev):

   -14.8312 -13.8041  -6.9828  -2.8712   1.1812   6.8941  10.5387  10.6723

     occupation numbers 
     1.0000   1.0000   1.0000   1.0000  -0.0000  -0.0000  -0.0000  -0.0000

          k = 0.0833 0.1443 0.0000     band energies (ev):

   -19.5935  -7.5586  -5.2808  -4.6151   3.2749   4.9139   5.9077   8.1773

     occupation numbers 
     1.0000   1.0000   1.0000   1.0000  -0.0000  -0.0000  -0.0000  -0.0000

          k = 0.0833 0.2406 0.0000     band energies (ev):

   -18.9423  -6.9908  -6.7892  -5.6146   4.1727   5.7923   6.7900   7.6169

     occupation numbers 
     1.0000   1.0000   1.0000   1.0000  -0.0000  -0.0000  -0.0000  -0.0000

          k = 0.0833 0.3368 0.0000     band energies (ev):

   -17.9759  -9.0653  -6.5020  -5.6713   5.4387   5.5155   7.1346   7.9559

     occupation numbers 
     1.0000   1.0000   1.0000   1.0000  -0.0000  -0.0000  -0.0000  -0.0000

          k = 0.0833 0.4330 0.0000     band energies (ev):

   -16.7134 -11.1907  -7.1378  -4.2893   3.2299   7.2834   7.8182   8.8532

     occupation numbers 
     1.0000   1.0000   1.0000   1.0000  -0.0000  -0.0000  -0.0000  -0.0000

          k = 0.0833 0.5292 0.0000     band energies (ev):

   -15.2305 -13.1360  -7.4667  -2.9780   1.4574   7.6326   9.5135  10.9069

     occupation numbers 
     1.0000   1.0000   1.0000   1.0000  -0.0000  -0.0000  -0.0000  -0.0000

          k = 0.1667 0.2887 0.0000     band energies (ev):

   -18.1364  -8.3208  -6.9786  -5.8504   5.2935   5.8927   6.8801   7.8993

     occupation numbers 
     1.0000   1.0000   1.0000   1.0000  -0.0000  -0.0000  -0.0000  -0.0000

          k = 0.1667 0.3849 0.0000     band energies (ev):

   -17.0267 -10.0499  -8.0360  -4.5952   3.9399   6.8547   8.3595   9.3945

     occupation numbers 
     1.0000   1.0000   1.0000   1.0000  -0.0000  -0.0000  -0.0000  -0.0000

          k = 0.1667 0.4811 0.0000     band energies (ev):

   -15.6483 -11.9638  -8.6122  -3.1659   2.0234   8.8345   9.5433  10.0997

     occupation numbers 
     1.0000   1.0000   1.0000   1.0000  -0.0000  -0.0000  -0.0000  -0.0000

          k = 0.1667 0.5774 0.0000     band energies (ev):

   -14.4095 -13.4033  -8.7971  -2.2718   0.9532   9.4432  11.1179  11.2927

     occupation numbers 
     1.0000   1.0000   1.0000   1.0000  -0.0000  -0.0000  -0.0000  -0.0000

          k = 0.2500 0.4330 0.0000     band energies (ev):

   -15.7963 -11.0848  -9.5224  -3.2501   2.3213   8.6206   9.7722  11.1416

     occupation numbers 
     1.0000   1.0000   1.0000   1.0000  -0.0000  -0.0000  -0.0000  -0.0000

          k = 0.2500 0.5292 0.0000     band energies (ev):

   -14.3709 -12.5092 -10.2305  -1.8618   0.7978  10.4465  10.7483  11.7132

     occupation numbers 
     1.0000   1.0000   1.0000   1.0000  -0.0000  -0.0000  -0.0000  -0.0000

          k = 0.3333 0.5774 0.0000     band energies (ev):

   -13.1508 -13.1508 -11.1306  -0.5032  -0.5032  10.1546  12.3956  12.3956

     occupation numbers 
     1.0000   1.0000   1.0000   0.5000   0.5000  -0.0000  -0.0000  -0.0000

     the Fermi energy is    -0.5032 ev

!    total energy              =     -36.88851493 Ry
     Harris-Foulkes estimate   =     -36.88856742 Ry
     estimated scf accuracy    <       0.00011002 Ry

     total all-electron energy =      -152.416718 Ry

     The total energy is the sum of the following terms:

     one-electron contribution =     -90.49316547 Ry
     hartree contribution      =      47.20085806 Ry
     xc contribution           =      -8.29263575 Ry
     ewald contribution        =      27.96304911 Ry
     scf correction            =       0.04095470 Ry
     one-center paw contrib.   =     -13.30741886 Ry
      -> PAW hartree energy AE =      22.30981108 Ry
      -> PAW hartree energy PS =     -22.28008936 Ry
      -> PAW xc energy AE      =     -21.98938301 Ry
      -> PAW xc energy PS      =       8.65224243 Ry
      -> total E_H with PAW    =      47.23057978 Ry
      -> total E_XC with PAW   =     -21.62977633 Ry
     smearing contrib. (-TS)   =      -0.00015672 Ry

     iteration #  8     ecut=    52.00 Ry     beta= 0.70
     Davidson diagonalization with overlap
     ethr =  1.04E-06,  avg # of iterations =  1.2

     negative rho (up, down):  2.464E-05 0.000E+00

     total cpu time spent up to now is        6.8 secs

          k = 0.0000 0.0000 0.0000     band energies (ev):

   -20.0261  -8.1049  -3.5254  -3.5254   2.5843   4.2256   5.2413   7.8695

     occupation numbers 
     1.0000   1.0000   1.0000   1.0000  -0.0000  -0.0000  -0.0000  -0.0000

          k = 0.0000 0.0962 0.0000     band energies (ev):

   -19.8618  -7.9083  -4.1764  -3.8647   2.8089   4.4478   5.4619   7.9391

     occupation numbers 
     1.0000   1.0000   1.0000   1.0000  -0.0000  -0.0000  -0.0000  -0.0000

          k = 0.0000 0.1925 0.0000     band energies (ev):

   -19.3707  -7.3240  -5.8155  -4.6591   3.4827   5.1115   6.1231   7.8983

     occupation numbers 
     1.0000   1.0000   1.0000   1.0000  -0.0000  -0.0000  -0.0000  -0.0000

          k = 0.0000 0.2887 0.0000     band energies (ev):

   -18.5585  -7.9169  -6.3709  -5.5411   4.6039   6.1626   6.8798   7.1877

     occupation numbers 
     1.0000   1.0000   1.0000   1.0000  -0.0000  -0.0000  -0.0000  -0.0000

          k = 0.0000 0.3849 0.0000     band energies (ev):

   -17.4373 -10.1242  -6.2762  -5.0996   4.4682   6.1643   7.2770   7.7861

     occupation numbers 
     1.0000   1.0000   1.0000   1.0000  -0.0000  -0.0000  -0.0000  -0.0000

          k = 0.0000 0.4811 0.0000     band energies (ev):

   -16.0380 -12.2290  -6.7502  -3.6733   2.3253   7.0280   8.1872   9.7257

     occupation numbers 
     1.0000   1.0000   1.0000   1.0000  -0.0000  -0.0000  -0.0000  -0.0000

          k = 0.0000-0.5774 0.0000     band energies (ev):

   -14.7688 -13.7413  -6.9130  -2.8262   1.2237   6.9500  10.5282  10.6589

     occupation numbers 
     1.0000   1.0000   1.0000   1.0000  -0.0000  -0.0000  -0.0000  -0.0000

          k = 0.0833 0.1443 0.0000     band energies (ev):

   -19.5341  -7.5177  -5.2106  -4.5439   3.2583   4.8911   5.9040   8.2400

     occupation numbers 
     1.0000   1.0000   1.0000   1.0000  -0.0000  -0.0000  -0.0000  -0.0000

          k = 0.0833 0.2406 0.0000     band energies (ev):

   -18.8824  -6.9224  -6.7479  -5.5444   4.1565   5.7701   6.7868   7.6682

     occupation numbers 
     1.0000   1.0000   1.0000   1.0000  -0.0000  -0.0000  -0.0000  -0.0000

          k = 0.0833 0.3368 0.0000     band energies (ev):

   -17.9156  -8.9989  -6.4326  -5.6292   5.4864   5.5000   7.1142   7.9868

     occupation numbers 
     1.0000   1.0000   1.0000   1.0000  -0.0000  -0.0000  -0.0000  -0.0000

          k = 0.0833 0.4330 0.0000     band energies (ev):

   -16.6523 -11.1260  -7.0687  -4.2462   3.2759   7.2717   7.8721   8.8337

     occupation numbers 
     1.0000   1.0000   1.0000   1.0000  -0.0000  -0.0000  -0.0000  -0.0000

          k = 0.0833 0.5292 0.0000     band energies (ev):

   -15.1685 -13.0727  -7.3978  -2.9333   1.5012   7.6893   9.5003  10.8926

     occupation numbers 
     1.0000   1.0000   1.0000   1.0000  -0.0000  -0.0000  -0.0000  -0.0000

          k = 0.1667 0.2887 0.0000     band energies (ev):

   -18.0761  -8.2534  -6.9102  -5.8085   5.2777   5.9426   6.8585   7.8958

     occupation numbers 
     1.0000   1.0000   1.0000   1.0000  -0.0000  -0.0000  -0.0000  -0.0000

          k = 0.1667 0.3849 0.0000     band energies (ev):

   -16.9658  -9.9841  -7.9685  -4.5524   3.9880   6.8398   8.3401   9.4001

     occupation numbers 
     1.0000   1.0000   1.0000   1.0000  -0.0000  -0.0000  -0.0000  -0.0000

          k = 0.1667 0.4811 0.0000     band energies (ev):

   -15.5865 -11.8996  -8.5450  -3.1218   2.0695   8.8225   9.5996  10.0878

     occupation numbers 
     1.0000   1.0000   1.0000   1.0000  -0.0000  -0.0000  -0.0000  -0.0000

          k = 0.1667 0.5774 0.0000     band energies (ev):

   -14.3469 -13.3402  -8.7300  -2.2265   0.9978   9.5010  11.1108  11.2813

     occupation numbers 
     1.0000   1.0000   1.0000   1.0000  -0.0000  -0.0000  -0.0000  -0.0000

          k = 0.2500 0.4330 0.0000     band energies (ev):

   -15.7346 -11.0196  -9.4565  -3.2063   2.3688   8.6071   9.7619  11.1438

     occupation numbers 
     1.0000   1.0000   1.0000   1.0000  -0.0000  -0.0000  -0.0000  -0.0000

          k = 0.2500 0.5292 0.0000     band energies (ev):

   -14.3083 -12.4452 -10.1651  -1.8167   0.8441  10.4585  10.7400  11.7670

     occupation numbers 
     1.0000   1.0000   1.0000   1.0000  -0.0000  -0.0000  -0.0000  -0.0000

          k = 0.3333 0.5774 0.0000     band energies (ev):

   -13.0872 -13.0872 -11.0663  -0.4572  -0.4572  10.1710  12.4162  12.4163

     occupation numbers 
     1.0000   1.0000   1.0000   0.5000   0.5000  -0.0000  -0.0000  -0.0000

     the Fermi energy is    -0.4572 ev

!    total energy              =     -36.88850687 Ry
     Harris-Foulkes estimate   =     -36.88852051 Ry
     estimated scf accuracy    <       0.00001932 Ry

     total all-electron energy =      -152.416710 Ry

     The total energy is the sum of the following terms:

     one-electron contribution =     -90.48207251 Ry
     hartree contribution      =      47.23730971 Ry
     xc contribution           =      -8.29807665 Ry
     ewald contribution        =      27.96304911 Ry
     scf correction            =      -0.00114132 Ry
     one-center paw contrib.   =     -13.30741850 Ry
      -> PAW hartree energy AE =      22.41222616 Ry
      -> PAW hartree energy PS =     -22.38242975 Ry
      -> PAW xc energy AE      =     -22.01200638 Ry
      -> PAW xc energy PS      =       8.67479147 Ry
      -> total E_H with PAW    =      47.26710612 Ry
      -> total E_XC with PAW   =     -21.63529156 Ry
     smearing contrib. (-TS)   =      -0.00015672 Ry

     iteration #  9     ecut=    52.00 Ry     beta= 0.70
     Davidson diagonalization with overlap
     ethr =  2.42E-07,  avg # of iterations =  3.9

     negative rho (up, down):  2.517E-05 0.000E+00

     total cpu time spent up to now is        7.5 secs

          k = 0.0000 0.0000 0.0000     band energies (ev):

   -19.9670  -8.0631  -3.4537  -3.4537   2.5730   4.2113   5.2367   7.9338

     occupation numbers 
     1.0000   1.0000   1.0000   1.0000  -0.0000  -0.0000  -0.0000  -0.0000

          k = 0.0000 0.0962 0.0000     band energies (ev):

   -19.8026  -7.8664  -4.1056  -3.7934   2.7977   4.4335   5.4574   8.0024

     occupation numbers 
     1.0000   1.0000   1.0000   1.0000  -0.0000  -0.0000  -0.0000  -0.0000

          k = 0.0000 0.1925 0.0000     band energies (ev):

   -19.3112  -7.2818  -5.7467  -4.5886   3.4717   5.0975   6.1189   7.9589

     occupation numbers 
     1.0000   1.0000   1.0000   1.0000  -0.0000  -0.0000  -0.0000  -0.0000

          k = 0.0000 0.2887 0.0000     band energies (ev):

   -18.4986  -7.8501  -6.3282  -5.4712   4.5934   6.1535   6.9263   7.1897

     occupation numbers 
     1.0000   1.0000   1.0000   1.0000  -0.0000  -0.0000  -0.0000  -0.0000

          k = 0.0000 0.3849 0.0000     band energies (ev):

   -17.3767 -10.0591  -6.2068  -5.0561   4.5158   6.1551   7.3327   7.7737

     occupation numbers 
     1.0000   1.0000   1.0000   1.0000  -0.0000  -0.0000  -0.0000  -0.0000

          k = 0.0000 0.4811 0.0000     band energies (ev):

   -15.9767 -12.1655  -6.6810  -3.6284   2.3707   7.0841   8.1783   9.7146

     occupation numbers 
     1.0000   1.0000   1.0000   1.0000  -0.0000  -0.0000  -0.0000  -0.0000

          k = 0.0000-0.5774 0.0000     band energies (ev):

   -14.7066 -13.6789  -6.8439  -2.7800   1.2675   7.0061  10.5219  10.6507

     occupation numbers 
     1.0000   1.0000   1.0000   1.0000  -0.0000  -0.0000  -0.0000  -0.0000

          k = 0.0833 0.1443 0.0000     band energies (ev):

   -19.4747  -7.4756  -5.1410  -4.4735   3.2472   4.8770   5.8996   8.3022

     occupation numbers 
     1.0000   1.0000   1.0000   1.0000  -0.0000  -0.0000  -0.0000  -0.0000

          k = 0.0833 0.2406 0.0000     band energies (ev):

   -18.8227  -6.8545  -6.7054  -5.4750   4.1457   5.7564   6.7829   7.7206

     occupation numbers 
     1.0000   1.0000   1.0000   1.0000  -0.0000  -0.0000  -0.0000  -0.0000

          k = 0.0833 0.3368 0.0000     band energies (ev):

   -17.8553  -8.9329  -6.3638  -5.5861   5.4898   5.5353   7.1021   8.0078

     occupation numbers 
     1.0000   1.0000   1.0000   1.0000  -0.0000  -0.0000  -0.0000  -0.0000

          k = 0.0833 0.4330 0.0000     band energies (ev):

   -16.5913 -11.0617  -7.0002  -4.2020   3.3230   7.2644   7.9269   8.8222

     occupation numbers 
     1.0000   1.0000   1.0000   1.0000  -0.0000  -0.0000  -0.0000  -0.0000

          k = 0.0833 0.5292 0.0000     band energies (ev):

   -15.1066 -13.0098  -7.3295  -2.8875   1.5460   7.7461   9.4923  10.8853

     occupation numbers 
     1.0000   1.0000   1.0000   1.0000  -0.0000  -0.0000  -0.0000  -0.0000

          k = 0.1667 0.2887 0.0000     band energies (ev):

   -18.0159  -8.1866  -6.8424  -5.7654   5.2673   5.9936   6.8452   7.8911

     occupation numbers 
     1.0000   1.0000   1.0000   1.0000  -0.0000  -0.0000  -0.0000  -0.0000

          k = 0.1667 0.3849 0.0000     band energies (ev):

   -16.9050  -9.9186  -7.9016  -4.5085   4.0372   6.8302   8.3287   9.4023

     occupation numbers 
     1.0000   1.0000   1.0000   1.0000  -0.0000  -0.0000  -0.0000  -0.0000

          k = 0.1667 0.4811 0.0000     band energies (ev):

   -15.5249 -11.8357  -8.4784  -3.0767   2.1166   8.8152   9.6563  10.0821

     occupation numbers 
     1.0000   1.0000   1.0000   1.0000  -0.0000  -0.0000  -0.0000  -0.0000

          k = 0.1667 0.5774 0.0000     band energies (ev):

   -14.2843 -13.2775  -8.6635  -2.1801   1.0434   9.5589  11.1074  11.2747

     occupation numbers 
     1.0000   1.0000   1.0000   1.0000  -0.0000  -0.0000  -0.0000  -0.0000

          k = 0.2500 0.4330 0.0000     band energies (ev):

   -15.6731 -10.9548  -9.3912  -3.1613   2.4173   8.5988   9.7576  11.1440

     occupation numbers 
     1.0000   1.0000   1.0000   1.0000  -0.0000  -0.0000  -0.0000  -0.0000

          k = 0.2500 0.5292 0.0000     band energies (ev):

   -14.2458 -12.3815 -10.1003  -1.7705   0.8915  10.4733  10.7362  11.8211

     occupation numbers 
     1.0000   1.0000   1.0000   1.0000  -0.0000  -0.0000  -0.0000  -0.0000

          k = 0.3333 0.5774 0.0000     band energies (ev):

   -13.0238 -13.0238 -11.0026  -0.4101  -0.4101  10.1893  12.4380  12.4380

     occupation numbers 
     1.0000   1.0000   1.0000   0.5000   0.5000  -0.0000  -0.0000  -0.0000

     the Fermi energy is    -0.4101 ev

!    total energy              =     -36.88852402 Ry
     Harris-Foulkes estimate   =     -36.88852665 Ry
     estimated scf accuracy    <       0.00001474 Ry

     total all-electron energy =      -152.416727 Ry

     The total energy is the sum of the following terms:

     one-electron contribution =     -90.45559453 Ry
     hartree contribution      =      47.23301858 Ry
     xc contribution           =      -8.29745096 Ry
     ewald contribution        =      27.96304911 Ry
     scf correction            =      -0.02396795 Ry
     one-center paw contrib.   =     -13.30742156 Ry
      -> PAW hartree energy AE =      22.39641010 Ry
      -> PAW hartree energy PS =     -22.36662568 Ry
      -> PAW xc energy AE      =     -22.00851979 Ry
      -> PAW xc energy PS      =       8.67131381 Ry
      -> total E_H with PAW    =      47.26280300 Ry
      -> total E_XC with PAW   =     -21.63465693 Ry
     smearing contrib. (-TS)   =      -0.00015672 Ry

     iteration # 10     ecut=    52.00 Ry     beta= 0.70
     Davidson diagonalization with overlap
     ethr =  1.84E-07,  avg # of iterations =  1.0

     negative rho (up, down):  3.231E-05 0.000E+00

     total cpu time spent up to now is        8.0 secs

          k = 0.0000 0.0000 0.0000     band energies (ev):

   -19.9739  -8.0679  -3.4622  -3.4622   2.5743   4.2130   5.2371   7.9262

     occupation numbers 
     1.0000   1.0000   1.0000   1.0000  -0.0000  -0.0000  -0.0000  -0.0000

          k = 0.0000 0.0962 0.0000     band energies (ev):

   -19.8095  -7.8712  -4.1139  -3.8018   2.7990   4.4352   5.4578   7.9949

     occupation numbers 
     1.0000   1.0000   1.0000   1.0000  -0.0000  -0.0000  -0.0000  -0.0000

          k = 0.0000 0.1925 0.0000     band energies (ev):

   -19.3182  -7.2866  -5.7548  -4.5969   3.4730   5.0992   6.1194   7.9518

     occupation numbers 
     1.0000   1.0000   1.0000   1.0000  -0.0000  -0.0000  -0.0000  -0.0000

          k = 0.0000 0.2887 0.0000     band energies (ev):

   -18.5056  -7.8580  -6.3331  -5.4794   4.5946   6.1546   6.9209   7.1894

     occupation numbers 
     1.0000   1.0000   1.0000   1.0000  -0.0000  -0.0000  -0.0000  -0.0000

          k = 0.0000 0.3849 0.0000     band energies (ev):

   -17.3839 -10.0668  -6.2150  -5.0611   4.5104   6.1562   7.3261   7.7752

     occupation numbers 
     1.0000   1.0000   1.0000   1.0000  -0.0000  -0.0000  -0.0000  -0.0000

          k = 0.0000 0.4811 0.0000     band energies (ev):

   -15.9839 -12.1729  -6.6892  -3.6335   2.3655   7.0775   8.1793   9.7160

     occupation numbers 
     1.0000   1.0000   1.0000   1.0000  -0.0000  -0.0000  -0.0000  -0.0000

          k = 0.0000-0.5774 0.0000     band energies (ev):

   -14.7139 -13.6863  -6.8520  -2.7853   1.2624   6.9995  10.5226  10.6517

     occupation numbers 
     1.0000   1.0000   1.0000   1.0000  -0.0000  -0.0000  -0.0000  -0.0000

          k = 0.0833 0.1443 0.0000     band energies (ev):

   -19.4817  -7.4804  -5.1492  -4.4818   3.2485   4.8787   5.9001   8.2949

     occupation numbers 
     1.0000   1.0000   1.0000   1.0000  -0.0000  -0.0000  -0.0000  -0.0000

          k = 0.0833 0.2406 0.0000     band energies (ev):

   -18.8297  -6.8625  -6.7102  -5.4832   4.1470   5.7580   6.7833   7.7146

     occupation numbers 
     1.0000   1.0000   1.0000   1.0000  -0.0000  -0.0000  -0.0000  -0.0000

          k = 0.0833 0.3368 0.0000     band energies (ev):

   -17.8624  -8.9406  -6.3719  -5.5910   5.4910   5.5297   7.1036   8.0054

     occupation numbers 
     1.0000   1.0000   1.0000   1.0000  -0.0000  -0.0000  -0.0000  -0.0000

          k = 0.0833 0.4330 0.0000     band energies (ev):

   -16.5985 -11.0692  -7.0083  -4.2070   3.3176   7.2653   7.9205   8.8236

     occupation numbers 
     1.0000   1.0000   1.0000   1.0000  -0.0000  -0.0000  -0.0000  -0.0000

          k = 0.0833 0.5292 0.0000     band energies (ev):

   -15.1139 -13.0172  -7.3375  -2.8928   1.5409   7.7395   9.4933  10.8862

     occupation numbers 
     1.0000   1.0000   1.0000   1.0000  -0.0000  -0.0000  -0.0000  -0.0000

          k = 0.1667 0.2887 0.0000     band energies (ev):

   -18.0230  -8.1944  -6.8504  -5.7704   5.2685   5.9877   6.8468   7.8914

     occupation numbers 
     1.0000   1.0000   1.0000   1.0000  -0.0000  -0.0000  -0.0000  -0.0000

          k = 0.1667 0.3849 0.0000     band energies (ev):

   -16.9121  -9.9263  -7.9095  -4.5135   4.0316   6.8314   8.3300   9.4020

     occupation numbers 
     1.0000   1.0000   1.0000   1.0000  -0.0000  -0.0000  -0.0000  -0.0000

          k = 0.1667 0.4811 0.0000     band energies (ev):

   -15.5321 -11.8432  -8.4862  -3.0819   2.1112   8.8161   9.6497  10.0828

     occupation numbers 
     1.0000   1.0000   1.0000   1.0000  -0.0000  -0.0000  -0.0000  -0.0000

          k = 0.1667 0.5774 0.0000     band energies (ev):

   -14.2917 -13.2849  -8.6713  -2.1854   1.0381   9.5521  11.1078  11.2755

     occupation numbers 
     1.0000   1.0000   1.0000   1.0000  -0.0000  -0.0000  -0.0000  -0.0000

          k = 0.2500 0.4330 0.0000     band energies (ev):

   -15.6803 -10.9624  -9.3989  -3.1665   2.4117   8.5998   9.7582  11.1439

     occupation numbers 
     1.0000   1.0000   1.0000   1.0000  -0.0000  -0.0000  -0.0000  -0.0000

          k = 0.2500 0.5292 0.0000     band energies (ev):

   -14.2531 -12.3890 -10.1080  -1.7758   0.8860  10.4716  10.7366  11.8148

     occupation numbers 
     1.0000   1.0000   1.0000   1.0000  -0.0000  -0.0000  -0.0000  -0.0000

          k = 0.3333 0.5774 0.0000     band energies (ev):

   -13.0312 -13.0312 -11.0101  -0.4155  -0.4155  10.1873  12.4355  12.4355

     occupation numbers 
     1.0000   1.0000   1.0000   0.5000   0.5000  -0.0000  -0.0000  -0.0000

     the Fermi energy is    -0.4155 ev

!    total energy              =     -36.88852151 Ry
     Harris-Foulkes estimate   =     -36.88852409 Ry
     estimated scf accuracy    <       0.00000997 Ry

     total all-electron energy =      -152.416724 Ry

     The total energy is the sum of the following terms:

     one-electron contribution =     -90.45669667 Ry
     hartree contribution      =      47.18718077 Ry
     xc contribution           =      -8.29097083 Ry
     ewald contribution        =      27.96304911 Ry
     scf correction            =       0.01650048 Ry
     one-center paw contrib.   =     -13.30742765 Ry
      -> PAW hartree energy AE =      22.22515043 Ry
      -> PAW hartree energy PS =     -22.19550008 Ry
      -> PAW xc energy AE      =     -21.97072096 Ry
      -> PAW xc energy PS      =       8.63364297 Ry
      -> total E_H with PAW    =      47.21683112 Ry
      -> total E_XC with PAW   =     -21.62804883 Ry
     smearing contrib. (-TS)   =      -0.00015672 Ry

     iteration # 11     ecut=    52.00 Ry     beta= 0.70
     Davidson diagonalization with overlap
     ethr =  1.25E-07,  avg # of iterations =  3.8

     negative rho (up, down):  2.808E-05 0.000E+00

     total cpu time spent up to now is        8.7 secs

          k = 0.0000 0.0000 0.0000     band energies (ev):

   -20.0483  -8.1195  -3.5521  -3.5521   2.5889   4.2319   5.2419   7.8449

     occupation numbers 
     1.0000   1.0000   1.0000   1.0000  -0.0000  -0.0000  -0.0000  -0.0000

          k = 0.0000 0.0962 0.0000     band energies (ev):

   -19.8840  -7.9230  -4.2028  -3.8913   2.8135   4.4541   5.4625   7.9149

     occupation numbers 
     1.0000   1.0000   1.0000   1.0000  -0.0000  -0.0000  -0.0000  -0.0000

          k = 0.0000 0.1925 0.0000     band energies (ev):

   -19.3930  -7.3387  -5.8413  -4.6855   3.4872   5.1178   6.1236   7.8754

     occupation numbers 
     1.0000   1.0000   1.0000   1.0000  -0.0000  -0.0000  -0.0000  -0.0000

          k = 0.0000 0.2887 0.0000     band energies (ev):

   -18.5809  -7.9419  -6.3859  -5.5673   4.6083   6.1669   6.8643   7.1847

     occupation numbers 
     1.0000   1.0000   1.0000   1.0000  -0.0000  -0.0000  -0.0000  -0.0000

          k = 0.0000 0.3849 0.0000     band energies (ev):

   -17.4599 -10.1485  -6.3023  -5.1149   4.4518   6.1681   7.2563   7.7916

     occupation numbers 
     1.0000   1.0000   1.0000   1.0000  -0.0000  -0.0000  -0.0000  -0.0000

          k = 0.0000 0.4811 0.0000     band energies (ev):

   -16.0609 -12.2528  -6.7763  -3.6889   2.3096   7.0072   8.1909   9.7310

     occupation numbers 
     1.0000   1.0000   1.0000   1.0000  -0.0000  -0.0000  -0.0000  -0.0000

          k = 0.0000-0.5774 0.0000     band energies (ev):

   -14.7919 -13.7649  -6.9390  -2.8422   1.2085   6.9292  10.5308  10.6622

[...]
     1.0000   1.0000   1.0000   0.5000   0.5000  -0.0000  -0.0000  -0.0000

     the Fermi energy is    -0.4547 ev

!    total energy              =     -36.88854381 Ry
     Harris-Foulkes estimate   =     -36.88854381 Ry
     estimated scf accuracy    <       0.00000003 Ry

     total all-electron energy =      -152.416747 Ry

     The total energy is the sum of the following terms:

     one-electron contribution =     -90.21328392 Ry
     hartree contribution      =      47.08503884 Ry
     xc contribution           =      -8.28916668 Ry
     ewald contribution        =      27.83497168 Ry
     scf correction            =       0.00128704 Ry
     one-center paw contrib.   =     -13.30723405 Ry
      -> PAW hartree energy AE =      22.23590822 Ry
      -> PAW hartree energy PS =     -22.20626348 Ry
      -> PAW xc energy AE      =     -21.97277715 Ry
      -> PAW xc energy PS      =       8.63589837 Ry
      -> total E_H with PAW    =      47.11468358 Ry
      -> total E_XC with PAW   =     -21.62604546 Ry
     smearing contrib. (-TS)   =      -0.00015672 Ry

     iteration # 10     ecut=    52.00 Ry     beta= 0.70
     Davidson diagonalization with overlap
     ethr =  3.85E-10,  avg # of iterations =  4.1

     negative rho (up, down):  2.690E-05 0.000E+00

     total cpu time spent up to now is       36.4 secs

          k = 0.0000 0.0000 0.0000     band energies (ev):

   -19.9867  -8.0778  -3.5143  -3.5143   2.5738   4.2133   5.2347   7.8521

     occupation numbers 
     1.0000   1.0000   1.0000   1.0000  -0.0000  -0.0000  -0.0000  -0.0000

          k =-0.0000 0.0961 0.0000     band energies (ev):

   -19.8228  -7.8819  -4.1647  -3.8524   2.7978   4.4349   5.4548   7.9204

     occupation numbers 
     1.0000   1.0000   1.0000   1.0000  -0.0000  -0.0000  -0.0000  -0.0000

          k =-0.0000 0.1922 0.0000     band energies (ev):

   -19.3327  -7.2993  -5.8018  -4.6440   3.4699   5.0969   6.1143   7.8747

     occupation numbers 
     1.0000   1.0000   1.0000   1.0000  -0.0000  -0.0000  -0.0000  -0.0000

          k =-0.0000 0.2883 0.0000     band energies (ev):

   -18.5223  -7.8998  -6.3493  -5.5229   4.5883   6.1448   6.8569   7.1749

     occupation numbers 
     1.0000   1.0000   1.0000   1.0000  -0.0000  -0.0000  -0.0000  -0.0000

          k =-0.0000 0.3844 0.0000     band energies (ev):

   -17.4036 -10.1028  -6.2557  -5.0820   4.4547   6.1449   7.2453   7.7638

     occupation numbers 
     1.0000   1.0000   1.0000   1.0000  -0.0000  -0.0000  -0.0000  -0.0000

          k =-0.0000 0.4805 0.0000     band energies (ev):

   -16.0080 -12.2028  -6.7282  -3.6604   2.3200   6.9950   8.1620   9.6982

     occupation numbers 
     1.0000   1.0000   1.0000   1.0000  -0.0000  -0.0000  -0.0000  -0.0000

          k = 0.0000-0.5766 0.0000     band energies (ev):

   -14.7464 -13.7072  -6.8904  -2.8164   1.2226   6.9162  10.4961  10.6295

     occupation numbers 
     1.0000   1.0000   1.0000   1.0000  -0.0000  -0.0000  -0.0000  -0.0000

          k = 0.0832 0.1441 0.0000     band energies (ev):

   -19.4958  -7.4925  -5.1980  -4.5293   3.2461   4.8770   5.8958   8.2202

     occupation numbers 
     1.0000   1.0000   1.0000   1.0000  -0.0000  -0.0000  -0.0000  -0.0000

          k = 0.0832 0.2402 0.0000     band energies (ev):

   -18.8455  -6.9074  -6.7250  -5.5266   4.1419   5.7536   6.7763   7.6416

     occupation numbers 
     1.0000   1.0000   1.0000   1.0000  -0.0000  -0.0000  -0.0000  -0.0000

          k = 0.0832 0.3363 0.0000     band energies (ev):

   -17.8808  -8.9801  -6.4122  -5.6099   5.4688   5.4821   7.0939   7.9649

     occupation numbers 
     1.0000   1.0000   1.0000   1.0000  -0.0000  -0.0000  -0.0000  -0.0000

          k = 0.0832 0.4324 0.0000     band energies (ev):

   -16.6206 -11.1028  -7.0465  -4.2314   3.2667   7.2495   7.8382   8.8087

     occupation numbers 
     1.0000   1.0000   1.0000   1.0000  -0.0000  -0.0000  -0.0000  -0.0000

          k = 0.0832 0.5285 0.0000     band energies (ev):

   -15.1417 -13.0436  -7.3747  -2.9230   1.4987   7.6547   9.4722  10.8622

     occupation numbers 
     1.0000   1.0000   1.0000   1.0000  -0.0000  -0.0000  -0.0000  -0.0000

          k = 0.1664 0.2883 0.0000     band energies (ev):

   -18.0410  -8.2376  -6.8879  -5.7886   5.2603   5.9227   6.8389   7.8813

     occupation numbers 
     1.0000   1.0000   1.0000   1.0000  -0.0000  -0.0000  -0.0000  -0.0000

          k = 0.1664 0.3844 0.0000     band energies (ev):

   -16.9332  -9.9648  -7.9439  -4.5365   3.9755   6.8185   8.3166   9.3811

     occupation numbers 
     1.0000   1.0000   1.0000   1.0000  -0.0000  -0.0000  -0.0000  -0.0000

          k = 0.1664 0.4805 0.0000     band energies (ev):

   -15.5575 -11.8753  -8.5196  -3.1107   2.0641   8.7964   9.5625  10.0603

     occupation numbers 
     1.0000   1.0000   1.0000   1.0000  -0.0000  -0.0000  -0.0000  -0.0000

          k = 0.1664 0.5766 0.0000     band energies (ev):

   -14.3248 -13.3085  -8.7044  -2.2186   0.9964   9.4634  11.0778  11.2020

     occupation numbers 
     1.0000   1.0000   1.0000   1.0000  -0.0000  -0.0000  -0.0000  -0.0000

          k = 0.2497 0.4324 0.0000     band energies (ev):

   -15.7051 -11.0008  -9.4263  -3.1948   2.3617   8.5815   9.7363  11.1201

     occupation numbers 
     1.0000   1.0000   1.0000   1.0000  -0.0000  -0.0000  -0.0000  -0.0000

          k = 0.2497 0.5285 0.0000     band energies (ev):

   -14.2833 -12.4217 -10.1339  -1.8100   0.8423  10.4385  10.7094  11.7261

     occupation numbers 
     1.0000   1.0000   1.0000   1.0000  -0.0000  -0.0000  -0.0000  -0.0000

          k = 0.3329 0.5766 0.0000     band energies (ev):

   -13.0663 -13.0663 -11.0279  -0.4549  -0.4549  10.1546  12.3801  12.3801

     occupation numbers 
     1.0000   1.0000   1.0000   0.5000   0.5000  -0.0000  -0.0000  -0.0000

     the Fermi energy is    -0.4549 ev

!    total energy              =     -36.88854388 Ry
     Harris-Foulkes estimate   =     -36.88854388 Ry
     estimated scf accuracy    <       0.00000001 Ry

     total all-electron energy =      -152.416747 Ry

     The total energy is the sum of the following terms:

     one-electron contribution =     -90.21294504 Ry
     hartree contribution      =      47.08545240 Ry
     xc contribution           =      -8.28920667 Ry
     ewald contribution        =      27.83497168 Ry
     scf correction            =       0.00056959 Ry
     one-center paw contrib.   =     -13.30722912 Ry
      -> PAW hartree energy AE =      22.23691807 Ry
      -> PAW hartree energy PS =     -22.20727299 Ry
      -> PAW xc energy AE      =     -21.97299210 Ry
      -> PAW xc energy PS      =       8.63611791 Ry
      -> total E_H with PAW    =      47.11509748 Ry
      -> total E_XC with PAW   =     -21.62608087 Ry
     smearing contrib. (-TS)   =      -0.00015672 Ry

     iteration # 11     ecut=    52.00 Ry     beta= 0.70
     Davidson diagonalization with overlap
     ethr =  1.67E-10,  avg # of iterations =  1.0

     negative rho (up, down):  2.682E-05 0.000E+00

     total cpu time spent up to now is       36.9 secs

     End of self-consistent calculation

          k = 0.0000 0.0000 0.0000 (  2287 PWs)   bands (ev):

   -19.9860  -8.0773  -3.5136  -3.5136   2.5736   4.2131   5.2346   7.8528

     occupation numbers 
     1.0000   1.0000   1.0000   1.0000  -0.0000  -0.0000  -0.0000  -0.0000

          k =-0.0000 0.0961 0.0000 (  2281 PWs)   bands (ev):

   -19.8221  -7.8813  -4.1639  -3.8516   2.7976   4.4347   5.4547   7.9211

     occupation numbers 
     1.0000   1.0000   1.0000   1.0000  -0.0000  -0.0000  -0.0000  -0.0000

          k =-0.0000 0.1922 0.0000 (  2269 PWs)   bands (ev):

   -19.3320  -7.2988  -5.8011  -4.6432   3.4697   5.0966   6.1143   7.8754

     occupation numbers 
     1.0000   1.0000   1.0000   1.0000  -0.0000  -0.0000  -0.0000  -0.0000

          k =-0.0000 0.2883 0.0000 (  2247 PWs)   bands (ev):

   -18.5216  -7.8990  -6.3487  -5.5222   4.5882   6.1447   6.8575   7.1749

     occupation numbers 
     1.0000   1.0000   1.0000   1.0000  -0.0000  -0.0000  -0.0000  -0.0000

          k =-0.0000 0.3844 0.0000 (  2241 PWs)   bands (ev):

   -17.4029 -10.1021  -6.2549  -5.0815   4.4553   6.1447   7.2460   7.7636

     occupation numbers 
     1.0000   1.0000   1.0000   1.0000  -0.0000  -0.0000  -0.0000  -0.0000

          k =-0.0000 0.4805 0.0000 (  2244 PWs)   bands (ev):

   -16.0073 -12.2020  -6.7274  -3.6599   2.3206   6.9957   8.1619   9.6980

     occupation numbers 
     1.0000   1.0000   1.0000   1.0000  -0.0000  -0.0000  -0.0000  -0.0000

          k = 0.0000-0.5766 0.0000 (  2264 PWs)   bands (ev):

   -14.7457 -13.7065  -6.8896  -2.8158   1.2232   6.9168  10.4961  10.6294

     occupation numbers 
     1.0000   1.0000   1.0000   1.0000  -0.0000  -0.0000  -0.0000  -0.0000

          k = 0.0832 0.1441 0.0000 (  2265 PWs)   bands (ev):

   -19.4951  -7.4919  -5.1973  -4.5285   3.2459   4.8768   5.8957   8.2209

     occupation numbers 
     1.0000   1.0000   1.0000   1.0000  -0.0000  -0.0000  -0.0000  -0.0000

          k = 0.0832 0.2402 0.0000 (  2268 PWs)   bands (ev):

   -18.8448  -6.9067  -6.7245  -5.5258   4.1418   5.7533   6.7762   7.6422

     occupation numbers 
     1.0000   1.0000   1.0000   1.0000  -0.0000  -0.0000  -0.0000  -0.0000

          k = 0.0832 0.3363 0.0000 (  2242 PWs)   bands (ev):

   -17.8801  -8.9794  -6.4114  -5.6093   5.4694   5.4819   7.0936   7.9652

     occupation numbers 
     1.0000   1.0000   1.0000   1.0000  -0.0000  -0.0000  -0.0000  -0.0000

          k = 0.0832 0.4324 0.0000 (  2239 PWs)   bands (ev):

   -16.6199 -11.1021  -7.0458  -4.2308   3.2673   7.2494   7.8389   8.8085

     occupation numbers 
     1.0000   1.0000   1.0000   1.0000  -0.0000  -0.0000  -0.0000  -0.0000

          k = 0.0832 0.5285 0.0000 (  2246 PWs)   bands (ev):

   -15.1410 -13.0429  -7.3739  -2.9225   1.4993   7.6554   9.4721  10.8621

     occupation numbers 
     1.0000   1.0000   1.0000   1.0000  -0.0000  -0.0000  -0.0000  -0.0000

          k = 0.1664 0.2883 0.0000 (  2251 PWs)   bands (ev):

   -18.0403  -8.2369  -6.8872  -5.7880   5.2601   5.9233   6.8386   7.8812

     occupation numbers 
     1.0000   1.0000   1.0000   1.0000  -0.0000  -0.0000  -0.0000  -0.0000

          k = 0.1664 0.3844 0.0000 (  2254 PWs)   bands (ev):

   -16.9325  -9.9641  -7.9431  -4.5359   3.9761   6.8184   8.3165   9.3811

     occupation numbers 
     1.0000   1.0000   1.0000   1.0000  -0.0000  -0.0000  -0.0000  -0.0000

          k = 0.1664 0.4805 0.0000 (  2242 PWs)   bands (ev):

   -15.5568 -11.8746  -8.5189  -3.1102   2.0646   8.7963   9.5631  10.0602

     occupation numbers 
     1.0000   1.0000   1.0000   1.0000  -0.0000  -0.0000  -0.0000  -0.0000

          k = 0.1664 0.5766 0.0000 (  2242 PWs)   bands (ev):

   -14.3241 -13.3078  -8.7037  -2.2180   0.9970   9.4640  11.0778  11.2022

     occupation numbers 
     1.0000   1.0000   1.0000   1.0000  -0.0000  -0.0000  -0.0000  -0.0000

          k = 0.2497 0.4324 0.0000 (  2245 PWs)   bands (ev):

   -15.7044 -11.0001  -9.4256  -3.1942   2.3623   8.5814   9.7362  11.1201

     occupation numbers 
     1.0000   1.0000   1.0000   1.0000  -0.0000  -0.0000  -0.0000  -0.0000

          k = 0.2497 0.5285 0.0000 (  2237 PWs)   bands (ev):

   -14.2826 -12.4210 -10.1331  -1.8094   0.8429  10.4387  10.7093  11.7267

     occupation numbers 
     1.0000   1.0000   1.0000   1.0000  -0.0000  -0.0000  -0.0000  -0.0000

          k = 0.3329 0.5766 0.0000 (  2244 PWs)   bands (ev):

   -13.0656 -13.0656 -11.0272  -0.4543  -0.4543  10.1549  12.3804  12.3804

     occupation numbers 
     1.0000   1.0000   1.0000   0.5000   0.5000  -0.0000  -0.0000  -0.0000

     the Fermi energy is    -0.4543 ev

!    total energy              =     -36.88854388 Ry
     Harris-Foulkes estimate   =     -36.88854388 Ry
     estimated scf accuracy    <          3.4E-09 Ry

     total all-electron energy =      -152.416747 Ry

     The total energy is the sum of the following terms:

     one-electron contribution =     -90.21285914 Ry
     hartree contribution      =      47.08598018 Ry
     xc contribution           =      -8.28925868 Ry
     ewald contribution        =      27.83497168 Ry
     one-center paw contrib.   =     -13.30722119 Ry
      -> PAW hartree energy AE =      22.23815882 Ry
      -> PAW hartree energy PS =     -22.20851348 Ry
      -> PAW xc energy AE      =     -21.97325634 Ry
      -> PAW xc energy PS      =       8.63638981 Ry
      -> total E_H with PAW    =      47.11562551 Ry
      -> total E_XC with PAW   =     -21.62612521 Ry
     smearing contrib. (-TS)   =      -0.00015672 Ry

     convergence has been achieved in  11 iterations

     negative rho (up, down):  2.682E-05 0.000E+00

     Forces acting on atoms (cartesian axes, Ry/au):

     atom    1 type  1   force =     0.00000000   -0.00000000    0.00000000
     atom    2 type  1   force =    -0.00000000    0.00000000    0.00000000
     The non-local contrib.  to forces
     atom    1 type  1   force =    -0.00000000    0.00000000    0.00000000
     atom    2 type  1   force =     0.00000000    0.00000000   -0.00000000
     The ionic contribution  to forces
     atom    1 type  1   force =    -0.00000001    0.00000000   -0.00000000
     atom    2 type  1   force =     0.00000001   -0.00000000    0.00000000
     The local contribution  to forces
     atom    1 type  1   force =     0.00000000    0.00000001   -0.00000000
     atom    2 type  1   force =     0.00000001    0.00000000   -0.00000000
     The core correction contribution to forces
     atom    1 type  1   force =    -0.00000000   -0.00000000   -0.00000000
     atom    2 type  1   force =    -0.00000000   -0.00000000   -0.00000000
     The Hubbard contrib.    to forces
     atom    1 type  1   force =     0.00000000    0.00000000    0.00000000
     atom    2 type  1   force =     0.00000000    0.00000000    0.00000000
     The SCF correction term to forces
     atom    1 type  1   force =    -0.00000000   -0.00000000    0.00000000
     atom    2 type  1   force =    -0.00000000   -0.00000000    0.00000000

     Total force =     0.000000     Total SCF correction =     0.000000


     Computing stress (Cartesian axis) and pressure


     negative rho (up, down):  2.682E-05 0.000E+00
          total   stress  (Ry/bohr**3)                   (kbar)     P=       -0.17
   0.00000050  -0.00000000  -0.00000000            0.07       -0.00       -0.00
  -0.00000000   0.00000050   0.00000000           -0.00        0.07        0.00
   0.00000000   0.00000000  -0.00000455            0.00        0.00       -0.67

     kinetic stress (kbar)   3804.74      0.00      0.00
                                0.00   3804.74     -0.00
                               -0.00      0.00   4343.05

     local   stress (kbar) -43027.01      0.00      0.00
                                0.00 -43027.01      0.00
                                0.00      0.00  42157.03

     nonloc. stress (kbar)   1344.70     -0.00     -0.00
                               -0.00   1344.70     -0.00
                               -0.00     -0.00   1213.86

     hartree stress (kbar)  19152.67     -0.00      0.00
                               -0.00  19152.67      0.00
                                0.00      0.00 -18809.43

     exc-cor stress (kbar)   -444.25     -0.00     -0.00
                               -0.00   -444.25     -0.00
                               -0.00     -0.00   -485.72

     corecor stress (kbar)   -539.36      0.00      0.00
                                0.00   -539.36     -0.00
                                0.00     -0.00   -527.29

     ewald   stress (kbar)  19708.60     -0.00      0.00
                               -0.00  19708.60     -0.00
                                0.00     -0.00 -27892.17

     hubbard stress (kbar)      0.00      0.00      0.00
                                0.00      0.00      0.00
                                0.00      0.00      0.00

     london  stress (kbar)      0.00      0.00      0.00
                                0.00      0.00      0.00
                                0.00      0.00      0.00

     DFT-D3  stress (kbar)      0.00      0.00      0.00
                                0.00      0.00      0.00
                                0.00      0.00      0.00

     XDM     stress (kbar)      0.00      0.00      0.00
                                0.00      0.00      0.00
                                0.00      0.00      0.00

     dft-nl  stress (kbar)      0.00      0.00      0.00
                                0.00      0.00      0.00
                                0.00      0.00      0.00

     TS-vdW  stress (kbar)      0.00      0.00      0.00
                                0.00      0.00      0.00
                                0.00      0.00      0.00



     Writing output data file ./Gr.save/

     init_run     :      1.98s CPU      1.99s WALL (       2 calls)
     electrons    :     26.14s CPU     26.23s WALL (       5 calls)
     update_pot   :      2.32s CPU      2.32s WALL (       3 calls)
     forces       :      2.13s CPU      2.13s WALL (       5 calls)
     stress       :      5.25s CPU      5.25s WALL (       5 calls)

     Called by init_run:
     wfcinit      :      0.35s CPU      0.35s WALL (       2 calls)
     wfcinit:atom :      0.01s CPU      0.01s WALL (      38 calls)
     wfcinit:wfcr :      0.30s CPU      0.30s WALL (      38 calls)
     potinit      :      0.51s CPU      0.52s WALL (       2 calls)
     hinit0       :      1.09s CPU      1.09s WALL (       2 calls)

     Called by electrons:
     c_bands      :     19.66s CPU     19.72s WALL (      39 calls)
     sum_band     :      3.24s CPU      3.26s WALL (      39 calls)
     v_of_rho     :      0.89s CPU      0.89s WALL (      42 calls)
     v_h          :      0.03s CPU      0.03s WALL (      42 calls)
     v_xc         :      1.06s CPU      1.06s WALL (      52 calls)
     newd         :      0.33s CPU      0.33s WALL (      42 calls)
     PAW_pot      :      2.52s CPU      2.52s WALL (      45 calls)
     mix_rho      :      0.07s CPU      0.07s WALL (      39 calls)

     Called by c_bands:
     init_us_2    :      0.50s CPU      0.50s WALL (    1767 calls)
     cegterg      :     19.17s CPU     19.23s WALL (     741 calls)

     Called by sum_band:
     sum_band:bec :      0.00s CPU      0.00s WALL (     798 calls)
     addusdens    :      0.25s CPU      0.25s WALL (      39 calls)

     Called by *egterg:
     h_psi        :     15.84s CPU     15.90s WALL (    3336 calls)
     s_psi        :      0.62s CPU      0.62s WALL (    3336 calls)
     g_psi        :      0.07s CPU      0.07s WALL (    2557 calls)
     cdiaghg      :      0.25s CPU      0.25s WALL (    3203 calls)
     cegterg:over :      1.15s CPU      1.16s WALL (    2557 calls)
     cegterg:upda :      0.70s CPU      0.70s WALL (    2557 calls)
     cegterg:last :      0.45s CPU      0.45s WALL (     852 calls)

     Called by h_psi:
     h_psi:calbec :      0.75s CPU      0.76s WALL (    3336 calls)
     vloc_psi     :     14.43s CPU     14.48s WALL (    3336 calls)
     add_vuspsi   :      0.62s CPU      0.62s WALL (    3336 calls)

     General routines
     calbec       :      1.17s CPU      1.18s WALL (    4609 calls)
     fft          :      0.41s CPU      0.41s WALL (     592 calls)
     ffts         :      0.03s CPU      0.03s WALL (      39 calls)
     fftw         :     15.42s CPU     15.48s WALL (   41578 calls)


     PAW routines
     PAW_pot      :      2.52s CPU      2.52s WALL (      45 calls)
     PAW_symme    :      0.00s CPU      0.00s WALL (      84 calls)

     PWSCF        :     38.28s CPU     38.40s WALL


   This run was terminated on:  17:39:10   4Jun2020            

=------------------------------------------------------------------------------=
   JOB DONE.
=------------------------------------------------------------------------------=
