
     Program BANDS v.6.5 starts on  4Jun2020 at 19:33:49 

     This program is part of the open-source Quantum ESPRESSO suite
     for quantum simulation of materials; please cite
         "P. Giannozzi et al., J. Phys.:Condens. Matter 21 395502 (2009);
         "P. Giannozzi et al., J. Phys.:Condens. Matter 29 465901 (2017);
          URL http://www.quantum-espresso.org", 
     in publications or presentations arising from this work. More details at
     http://www.quantum-espresso.org/quote

     Serial version

     Reading xml data from directory:

     ./Gr_BN.save/

     Program BANDS v.6.5 starts on  4Jun2020 at 19:33:49 

     This program is part of the open-source Quantum ESPRESSO suite
     for quantum simulation of materials; please cite
         "P. Giannozzi et al., J. Phys.:Condens. Matter 21 395502 (2009);
         "P. Giannozzi et al., J. Phys.:Condens. Matter 29 465901 (2017);
          URL http://www.quantum-espresso.org", 
     in publications or presentations arising from this work. More details at
     http://www.quantum-espresso.org/quote

     Serial version

     Reading xml data from directory:

     ./Gr_BN.save/

     Program BANDS v.6.5 starts on  4Jun2020 at 19:33:49 

     This program is part of the open-source Quantum ESPRESSO suite
     for quantum simulation of materials; please cite
         "P. Giannozzi et al., J. Phys.:Condens. Matter 21 395502 (2009);
         "P. Giannozzi et al., J. Phys.:Condens. Matter 29 465901 (2017);
          URL http://www.quantum-espresso.org", 
     in publications or presentations arising from this work. More details at
     http://www.quantum-espresso.org/quote

     Serial version

     Reading xml data from directory:

     ./Gr_BN.save/

     Program BANDS v.6.5 starts on  4Jun2020 at 19:33:49 

     This program is part of the open-source Quantum ESPRESSO suite
     for quantum simulation of materials; please cite
         "P. Giannozzi et al., J. Phys.:Condens. Matter 21 395502 (2009);
         "P. Giannozzi et al., J. Phys.:Condens. Matter 29 465901 (2017);
          URL http://www.quantum-espresso.org", 
     in publications or presentations arising from this work. More details at
     http://www.quantum-espresso.org/quote

     Serial version

     Reading xml data from directory:

     ./Gr_BN.save/

     Program BANDS v.6.5 starts on  4Jun2020 at 19:33:49 

     This program is part of the open-source Quantum ESPRESSO suite
     for quantum simulation of materials; please cite
         "P. Giannozzi et al., J. Phys.:Condens. Matter 21 395502 (2009);
         "P. Giannozzi et al., J. Phys.:Condens. Matter 29 465901 (2017);
          URL http://www.quantum-espresso.org", 
     in publications or presentations arising from this work. More details at
     http://www.quantum-espresso.org/quote

     Serial version

     Reading xml data from directory:

     ./Gr_BN.save/

     Program BANDS v.6.5 starts on  4Jun2020 at 19:33:49 

     This program is part of the open-source Quantum ESPRESSO suite
     for quantum simulation of materials; please cite
         "P. Giannozzi et al., J. Phys.:Condens. Matter 21 395502 (2009);
         "P. Giannozzi et al., J. Phys.:Condens. Matter 29 465901 (2017);
          URL http://www.quantum-espresso.org", 
     in publications or presentations arising from this work. More details at
     http://www.quantum-espresso.org/quote

     Serial version

     Reading xml data from directory:

     ./Gr_BN.save/

     Program BANDS v.6.5 starts on  4Jun2020 at 19:33:49 

     This program is part of the open-source Quantum ESPRESSO suite
     for quantum simulation of materials; please cite
         "P. Giannozzi et al., J. Phys.:Condens. Matter 21 395502 (2009);
         "P. Giannozzi et al., J. Phys.:Condens. Matter 29 465901 (2017);
          URL http://www.quantum-espresso.org", 
     in publications or presentations arising from this work. More details at
     http://www.quantum-espresso.org/quote

     Serial version

     Reading xml data from directory:

     ./Gr_BN.save/

     Program BANDS v.6.5 starts on  4Jun2020 at 19:33:49 

     This program is part of the open-source Quantum ESPRESSO suite
     for quantum simulation of materials; please cite
         "P. Giannozzi et al., J. Phys.:Condens. Matter 21 395502 (2009);
         "P. Giannozzi et al., J. Phys.:Condens. Matter 29 465901 (2017);
          URL http://www.quantum-espresso.org", 
     in publications or presentations arising from this work. More details at
     http://www.quantum-espresso.org/quote

     Serial version

     Reading xml data from directory:

     ./Gr_BN.save/

     Program BANDS v.6.5 starts on  4Jun2020 at 19:33:49 

     This program is part of the open-source Quantum ESPRESSO suite
     for quantum simulation of materials; please cite
         "P. Giannozzi et al., J. Phys.:Condens. Matter 21 395502 (2009);
         "P. Giannozzi et al., J. Phys.:Condens. Matter 29 465901 (2017);
          URL http://www.quantum-espresso.org", 
     in publications or presentations arising from this work. More details at
     http://www.quantum-espresso.org/quote

     Serial version

     Reading xml data from directory:

     ./Gr_BN.save/

     Program BANDS v.6.5 starts on  4Jun2020 at 19:33:49 

     This program is part of the open-source Quantum ESPRESSO suite
     for quantum simulation of materials; please cite
         "P. Giannozzi et al., J. Phys.:Condens. Matter 21 395502 (2009);
         "P. Giannozzi et al., J. Phys.:Condens. Matter 29 465901 (2017);
          URL http://www.quantum-espresso.org", 
     in publications or presentations arising from this work. More details at
     http://www.quantum-espresso.org/quote

     Serial version

     Reading xml data from directory:

     ./Gr_BN.save/
     Message from routine read_upf::
     Pseudo file C.pbe-n-kjpaw_psl.0.1.UPF has been fixed on the fly.
To avoid this message in the future, permanently fix 
 your pseudo files following these instructions: 
https://gitlab.com/QEF/q-e/blob/master/upftools/how_to_fix_upf.md

 %%%%%%%%%%%%%%%%%%%%%%%%%%%%%%%%%%%%%%%%%%%%%%%%%%%%%%%%%%%%%%%%%%%%%%%%%%%%%%
     Error in routine readpp (1):
     file ./Gr_BN.save/C.pbe-n-kjpaw_psl.0.1.UPF not readable
 %%%%%%%%%%%%%%%%%%%%%%%%%%%%%%%%%%%%%%%%%%%%%%%%%%%%%%%%%%%%%%%%%%%%%%%%%%%%%%

     stopping ...

 %%%%%%%%%%%%%%%%%%%%%%%%%%%%%%%%%%%%%%%%%%%%%%%%%%%%%%%%%%%%%%%%%%%%%%%%%%%%%%
     Error in routine upf_module:read_upf (2):
     error while opening file ./C.pbe-n-kjpaw_psl.0.1.UPF_
 %%%%%%%%%%%%%%%%%%%%%%%%%%%%%%%%%%%%%%%%%%%%%%%%%%%%%%%%%%%%%%%%%%%%%%%%%%%%%%

     stopping ...

 %%%%%%%%%%%%%%%%%%%%%%%%%%%%%%%%%%%%%%%%%%%%%%%%%%%%%%%%%%%%%%%%%%%%%%%%%%%%%%
     Error in routine upf_module:read_upf (2):
     error while opening file ./C.pbe-n-kjpaw_psl.0.1.UPF_
 %%%%%%%%%%%%%%%%%%%%%%%%%%%%%%%%%%%%%%%%%%%%%%%%%%%%%%%%%%%%%%%%%%%%%%%%%%%%%%

     stopping ...
     Message from routine read_upf::
     Pseudo file C.pbe-n-kjpaw_psl.0.1.UPF has been fixed on the fly.
To avoid this message in the future, permanently fix 
 your pseudo files following these instructions: 
https://gitlab.com/QEF/q-e/blob/master/upftools/how_to_fix_upf.md

 %%%%%%%%%%%%%%%%%%%%%%%%%%%%%%%%%%%%%%%%%%%%%%%%%%%%%%%%%%%%%%%%%%%%%%%%%%%%%%
     Error in routine readpp (1):
     file ./Gr_BN.save/C.pbe-n-kjpaw_psl.0.1.UPF not readable
 %%%%%%%%%%%%%%%%%%%%%%%%%%%%%%%%%%%%%%%%%%%%%%%%%%%%%%%%%%%%%%%%%%%%%%%%%%%%%%

     stopping ...

 %%%%%%%%%%%%%%%%%%%%%%%%%%%%%%%%%%%%%%%%%%%%%%%%%%%%%%%%%%%%%%%%%%%%%%%%%%%%%%
     Error in routine upf_module:read_upf (2):
     error while opening file ./C.pbe-n-kjpaw_psl.0.1.UPF_
 %%%%%%%%%%%%%%%%%%%%%%%%%%%%%%%%%%%%%%%%%%%%%%%%%%%%%%%%%%%%%%%%%%%%%%%%%%%%%%

     stopping ...

 %%%%%%%%%%%%%%%%%%%%%%%%%%%%%%%%%%%%%%%%%%%%%%%%%%%%%%%%%%%%%%%%%%%%%%%%%%%%%%
     Error in routine upf_module:read_upf (2):
     error while opening file ./C.pbe-n-kjpaw_psl.0.1.UPF_
 %%%%%%%%%%%%%%%%%%%%%%%%%%%%%%%%%%%%%%%%%%%%%%%%%%%%%%%%%%%%%%%%%%%%%%%%%%%%%%

     stopping ...
     Message from routine read_upf::
     Pseudo file C.pbe-n-kjpaw_psl.0.1.UPF has been fixed on the fly.
To avoid this message in the future, permanently fix 
 your pseudo files following these instructions: 
https://gitlab.com/QEF/q-e/blob/master/upftools/how_to_fix_upf.md
     Message from routine read_upf::
     Pseudo file C.pbe-n-kjpaw_psl.0.1.UPF has been fixed on the fly.
To avoid this message in the future, permanently fix 
 your pseudo files following these instructions: 
https://gitlab.com/QEF/q-e/blob/master/upftools/how_to_fix_upf.md
     Message from routine read_upf::
     Pseudo file C.pbe-n-kjpaw_psl.0.1.UPF has been fixed on the fly.
To avoid this message in the future, permanently fix 
 your pseudo files following these instructions: 
https://gitlab.com/QEF/q-e/blob/master/upftools/how_to_fix_upf.md
     Message from routine read_upf::
     Pseudo file C.pbe-n-kjpaw_psl.0.1.UPF has been fixed on the fly.
To avoid this message in the future, permanently fix 
 your pseudo files following these instructions: 
https://gitlab.com/QEF/q-e/blob/master/upftools/how_to_fix_upf.md
     Message from routine read_upf::
     Pseudo file B.pbe-n-kjpaw_psl.0.1.UPF has been fixed on the fly.
To avoid this message in the future, permanently fix 
 your pseudo files following these instructions: 
https://gitlab.com/QEF/q-e/blob/master/upftools/how_to_fix_upf.md
     Message from routine read_upf::
     Pseudo file B.pbe-n-kjpaw_psl.0.1.UPF has been fixed on the fly.
To avoid this message in the future, permanently fix 
 your pseudo files following these instructions: 
https://gitlab.com/QEF/q-e/blob/master/upftools/how_to_fix_upf.md
     Message from routine read_upf::
     Pseudo file B.pbe-n-kjpaw_psl.0.1.UPF has been fixed on the fly.
To avoid this message in the future, permanently fix 
 your pseudo files following these instructions: 
https://gitlab.com/QEF/q-e/blob/master/upftools/how_to_fix_upf.md
     Message from routine read_upf::
     Pseudo file B.pbe-n-kjpaw_psl.0.1.UPF has been fixed on the fly.
To avoid this message in the future, permanently fix 
 your pseudo files following these instructions: 
https://gitlab.com/QEF/q-e/blob/master/upftools/how_to_fix_upf.md
     Message from routine read_upf::
     Pseudo file N.pbe-n-kjpaw_psl.0.1.UPF has been fixed on the fly.
To avoid this message in the future, permanently fix 
 your pseudo files following these instructions: 
https://gitlab.com/QEF/q-e/blob/master/upftools/how_to_fix_upf.md

     IMPORTANT: XC functional enforced from input :
     Exchange-correlation= PBE
                           (   1   4   3   4   0   0   0)
     Any further DFT definition will be discarded
     Please, verify this is what you really want

               file C.pbe-n-kjpaw_psl.0.1.UPF: wavefunction(s)  2P renormalized
               file B.pbe-n-kjpaw_psl.0.1.UPF: wavefunction(s)  2P renormalized
               file N.pbe-n-kjpaw_psl.0.1.UPF: wavefunction(s)  2P renormalized

     G-vector sticks info
     --------------------
     sticks:   dense  smooth     PW     G-vecs:    dense   smooth      PW
     Sum         313     313     97                13363    13363    2315

     Message from routine read_upf::
     Pseudo file N.pbe-n-kjpaw_psl.0.1.UPF has been fixed on the fly.
To avoid this message in the future, permanently fix 
 your pseudo files following these instructions: 
https://gitlab.com/QEF/q-e/blob/master/upftools/how_to_fix_upf.md

     IMPORTANT: XC functional enforced from input :
     Exchange-correlation= PBE
                           (   1   4   3   4   0   0   0)
     Any further DFT definition will be discarded
     Please, verify this is what you really want

               file C.pbe-n-kjpaw_psl.0.1.UPF: wavefunction(s)  2P renormalized
               file B.pbe-n-kjpaw_psl.0.1.UPF: wavefunction(s)  2P renormalized
               file N.pbe-n-kjpaw_psl.0.1.UPF: wavefunction(s)  2P renormalized

     G-vector sticks info
     --------------------
     sticks:   dense  smooth     PW     G-vecs:    dense   smooth      PW
     Sum         313     313     97                13363    13363    2315

     Message from routine read_upf::
     Pseudo file N.pbe-n-kjpaw_psl.0.1.UPF has been fixed on the fly.
To avoid this message in the future, permanently fix 
 your pseudo files following these instructions: 
https://gitlab.com/QEF/q-e/blob/master/upftools/how_to_fix_upf.md

     IMPORTANT: XC functional enforced from input :
     Exchange-correlation= PBE
                           (   1   4   3   4   0   0   0)
     Any further DFT definition will be discarded
     Please, verify this is what you really want

               file C.pbe-n-kjpaw_psl.0.1.UPF: wavefunction(s)  2P renormalized
               file B.pbe-n-kjpaw_psl.0.1.UPF: wavefunction(s)  2P renormalized
               file N.pbe-n-kjpaw_psl.0.1.UPF: wavefunction(s)  2P renormalized

     G-vector sticks info
     --------------------
     sticks:   dense  smooth     PW     G-vecs:    dense   smooth      PW
     Sum         313     313     97                13363    13363    2315

     Message from routine read_upf::
     Pseudo file N.pbe-n-kjpaw_psl.0.1.UPF has been fixed on the fly.
To avoid this message in the future, permanently fix 
 your pseudo files following these instructions: 
https://gitlab.com/QEF/q-e/blob/master/upftools/how_to_fix_upf.md

     IMPORTANT: XC functional enforced from input :
     Exchange-correlation= PBE
                           (   1   4   3   4   0   0   0)
     Any further DFT definition will be discarded
     Please, verify this is what you really want

               file C.pbe-n-kjpaw_psl.0.1.UPF: wavefunction(s)  2P renormalized
               file B.pbe-n-kjpaw_psl.0.1.UPF: wavefunction(s)  2P renormalized
               file N.pbe-n-kjpaw_psl.0.1.UPF: wavefunction(s)  2P renormalized

     G-vector sticks info
     --------------------
     sticks:   dense  smooth     PW     G-vecs:    dense   smooth      PW
     Sum         313     313     97                13363    13363    2315


     Check: negative core charge=   -0.000045

     Check: negative core charge=   -0.000045

     Check: negative core charge=   -0.000045

     Check: negative core charge=   -0.000045
     Reading collected, re-writing distributed wavefunctions
     Reading collected, re-writing distributed wavefunctions
     Reading collected, re-writing distributed wavefunctions
     Reading collected, re-writing distributed wavefunctions
     high-symmetry point:  0.0000 0.0000 0.0000   x coordinate   0.0000
     high-symmetry point:  0.6620 0.0000-0.0003   x coordinate   0.6620
     high-symmetry point:  0.4965 0.2867-0.0003   x coordinate   0.9930
     high-symmetry point:  0.0000 0.0000 0.0000   x coordinate   1.5664

     Plottable bands (eV) written to file Gr_BN.bands.gnu
     Bands written to file Gr_BN.bands
     high-symmetry point:  0.0000 0.0000 0.0000   x coordinate   0.0000
     high-symmetry point:  0.6620 0.0000-0.0003   x coordinate   0.6620
     high-symmetry point:  0.4965 0.2867-0.0003   x coordinate   0.9930
     high-symmetry point:  0.0000 0.0000 0.0000   x coordinate   1.5664

     Plottable bands (eV) written to file Gr_BN.bands.gnu
     Bands written to file Gr_BN.bands
     high-symmetry point:  0.0000 0.0000 0.0000   x coordinate   0.0000
     high-symmetry point:  0.6620 0.0000-0.0003   x coordinate   0.6620
     high-symmetry point:  0.4965 0.2867-0.0003   x coordinate   0.9930
     high-symmetry point:  0.0000 0.0000 0.0000   x coordinate   1.5664

     Plottable bands (eV) written to file Gr_BN.bands.gnu
     Bands written to file Gr_BN.bands
     high-symmetry point:  0.0000 0.0000 0.0000   x coordinate   0.0000
     high-symmetry point:  0.6620 0.0000-0.0003   x coordinate   0.6620
     high-symmetry point:  0.4965 0.2867-0.0003   x coordinate   0.9930
     high-symmetry point:  0.0000 0.0000 0.0000   x coordinate   1.5664

     Plottable bands (eV) written to file Gr_BN.bands.gnu
     Bands written to file Gr_BN.bands

 **************************************************************************

                    xk=(   0.00000,   0.00000,   0.00000  )

     point group C_1 (1)    
     there are  1 classes
     the character table:

       E    
A      1.00

     the symmetry operations in each class and the name of the first element:

     E        1
                                                                 

     Band symmetry, C_1 (1)     point group:

     e(  1 -  1) =    -13.68562  eV     1   --> A              
     e(  2 -  2) =    -13.49824  eV     1   --> A              
     e(  3 -  3) =     -2.13934  eV     1   --> A              
     e(  4 -  4) =     -0.68276  eV     1   --> A              
     e(  5 -  5) =      2.63082  eV     1   --> A              
     e(  6 -  6) =      2.63157  eV     1   --> A              
     e(  7 -  7) =      2.96184  eV     1   --> A              
     e(  8 -  8) =      2.96240  eV     1   --> A              
     e(  9 -  9) =      9.21811  eV     1   --> A              
     e( 10 - 10) =     13.84530  eV     1   --> A              
     e( 11 - 11) =     13.84645  eV     1   --> A              
     e( 12 - 12) =     13.89298  eV     1   --> A              
     e( 13 - 13) =     16.06815  eV     1   --> A              
     e( 14 - 14) =     16.06902  eV     1   --> A              
     e( 15 - 15) =     16.82920  eV     1   --> A              
     e( 16 - 16) =     17.22744  eV     1   --> A              
     e( 17 - 17) =     17.66032  eV     1   --> A              
     e( 18 - 18) =     18.65150  eV     1   --> A              
     e( 19 - 19) =     22.41115  eV     1   --> A              
     e( 20 - 20) =     27.87127  eV     1   --> A              

 **************************************************************************

 **************************************************************************

                    xk=(   0.01655,   0.00000,  -0.00001  )

     Band symmetry, C_1 (1)     point group:

     e(  1 -  1) =    -13.68088  eV     1   --> A              
     e(  2 -  2) =    -13.49402  eV     1   --> A              
     e(  3 -  3) =     -2.13349  eV     1   --> A              
     e(  4 -  4) =     -0.67734  eV     1   --> A              
     e(  5 -  5) =      2.61059  eV     1   --> A              
     e(  6 -  6) =      2.62087  eV     1   --> A              
     e(  7 -  7) =      2.94433  eV     1   --> A              
     e(  8 -  8) =      2.95380  eV     1   --> A              
     e(  9 -  9) =      9.22506  eV     1   --> A              
     e( 10 - 10) =     13.84934  eV     1   --> A              
     e( 11 - 11) =     13.86658  eV     1   --> A              
     e( 12 - 12) =     13.89504  eV     1   --> A              
     e( 13 - 13) =     16.06508  eV     1   --> A              
     e( 14 - 14) =     16.08717  eV     1   --> A              
     e( 15 - 15) =     16.81239  eV     1   --> A              
     e( 16 - 16) =     17.23997  eV     1   --> A              
     e( 17 - 17) =     17.66925  eV     1   --> A              
     e( 18 - 18) =     18.63953  eV     1   --> A              
     e( 19 - 19) =     22.42027  eV     1   --> A              
     e( 20 - 20) =     27.88703  eV     1   --> A              

 **************************************************************************

 **************************************************************************

                    xk=(   0.03310,   0.00000,  -0.00001  )

     Band symmetry, C_1 (1)     point group:

     e(  1 -  1) =    -13.66668  eV     1   --> A              
     e(  2 -  2) =    -13.48138  eV     1   --> A              
     e(  3 -  3) =     -2.11598  eV     1   --> A              
     e(  4 -  4) =     -0.66112  eV     1   --> A              
     e(  5 -  5) =      2.55012  eV     1   --> A              
     e(  6 -  6) =      2.58912  eV     1   --> A              
     e(  7 -  7) =      2.89148  eV     1   --> A              
     e(  8 -  8) =      2.92868  eV     1   --> A              
     e(  9 -  9) =      9.24582  eV     1   --> A              
     e( 10 - 10) =     13.85855  eV     1   --> A              
     e( 11 - 11) =     13.90106  eV     1   --> A              
     e( 12 - 12) =     13.92885  eV     1   --> A              
     e( 13 - 13) =     16.05505  eV     1   --> A              
     e( 14 - 14) =     16.14214  eV     1   --> A              
     e( 15 - 15) =     16.76207  eV     1   --> A              
     e( 16 - 16) =     17.27736  eV     1   --> A              
     e( 17 - 17) =     17.69628  eV     1   --> A              
     e( 18 - 18) =     18.60384  eV     1   --> A              
     e( 19 - 19) =     22.44737  eV     1   --> A              
     e( 20 - 20) =     27.93393  eV     1   --> A              

 **************************************************************************

 **************************************************************************

                    xk=(   0.04965,   0.00000,  -0.00002  )

     Band symmetry, C_1 (1)     point group:

     e(  1 -  1) =    -13.64303  eV     1   --> A              
     e(  2 -  2) =    -13.46032  eV     1   --> A              
     e(  3 -  3) =     -2.08684  eV     1   --> A              
     e(  4 -  4) =     -0.63413  eV     1   --> A              
     e(  5 -  5) =      2.45116  eV     1   --> A              
     e(  6 -  6) =      2.53649  eV     1   --> A              
     e(  7 -  7) =      2.80475  eV     1   --> A              
     e(  8 -  8) =      2.88704  eV     1   --> A              
     e(  9 -  9) =      9.28022  eV     1   --> A              
     e( 10 - 10) =     13.87402  eV     1   --> A              
     e( 11 - 11) =     13.91068  eV     1   --> A              
     e( 12 - 12) =     14.02970  eV     1   --> A              
     e( 13 - 13) =     16.04048  eV     1   --> A              
     e( 14 - 14) =     16.23073  eV     1   --> A              
     e( 15 - 15) =     16.67871  eV     1   --> A              
     e( 16 - 16) =     17.33934  eV     1   --> A              
     e( 17 - 17) =     17.74220  eV     1   --> A              
     e( 18 - 18) =     18.54516  eV     1   --> A              
     e( 19 - 19) =     22.49194  eV     1   --> A              
     e( 20 - 20) =     28.01093  eV     1   --> A              

 **************************************************************************

 **************************************************************************

                    xk=(   0.06620,   0.00000,  -0.00003  )

     Band symmetry, C_1 (1)     point group:

     e(  1 -  1) =    -13.60997  eV     1   --> A              
     e(  2 -  2) =    -13.43083  eV     1   --> A              
     e(  3 -  3) =     -2.04607  eV     1   --> A              
     e(  4 -  4) =     -0.59636  eV     1   --> A              
     e(  5 -  5) =      2.31651  eV     1   --> A              
     e(  6 -  6) =      2.46343  eV     1   --> A              
     e(  7 -  7) =      2.68634  eV     1   --> A              
     e(  8 -  8) =      2.82918  eV     1   --> A              
     e(  9 -  9) =      9.32799  eV     1   --> A              
     e( 10 - 10) =     13.89613  eV     1   --> A              
     e( 11 - 11) =     13.92335  eV     1   --> A              
     e( 12 - 12) =     14.16502  eV     1   --> A              
     e( 13 - 13) =     16.02402  eV     1   --> A              
     e( 14 - 14) =     16.34842  eV     1   --> A              
     e( 15 - 15) =     16.56333  eV     1   --> A              
     e( 16 - 16) =     17.42623  eV     1   --> A              
     e( 17 - 17) =     17.80835  eV     1   --> A              
     e( 18 - 18) =     18.46479  eV     1   --> A              
     e( 19 - 19) =     22.55317  eV     1   --> A              
     e( 20 - 20) =     28.11627  eV     1   --> A              

 **************************************************************************

 **************************************************************************

                    xk=(   0.08275,   0.00000,  -0.00003  )

     Band symmetry, C_1 (1)     point group:

     e(  1 -  1) =    -13.56756  eV     1   --> A              
     e(  2 -  2) =    -13.39291  eV     1   --> A              
     e(  3 -  3) =     -1.99371  eV     1   --> A              
     e(  4 -  4) =     -0.54797  eV     1   --> A              
     e(  5 -  5) =      2.14953  eV     1   --> A              
     e(  6 -  6) =      2.37046  eV     1   --> A              
     e(  7 -  7) =      2.53881  eV     1   --> A              
     e(  8 -  8) =      2.75553  eV     1   --> A              
     e(  9 -  9) =      9.38879  eV     1   --> A              
     e( 10 - 10) =     13.92464  eV     1   --> A              
     e( 11 - 11) =     13.93865  eV     1   --> A              
     e( 12 - 12) =     14.32933  eV     1   --> A              
     e( 13 - 13) =     16.00845  eV     1   --> A              
     e( 14 - 14) =     16.41721  eV     1   --> A              
     e( 15 - 15) =     16.48863  eV     1   --> A              
     e( 16 - 16) =     17.53948  eV     1   --> A              
     e( 17 - 17) =     17.89657  eV     1   --> A              
     e( 18 - 18) =     18.36464  eV     1   --> A              
     e( 19 - 19) =     22.62995  eV     1   --> A              
     e( 20 - 20) =     28.24735  eV     1   --> A              

 **************************************************************************

 **************************************************************************

                    xk=(   0.09930,   0.00000,  -0.00004  )

     Band symmetry, C_1 (1)     point group:

     e(  1 -  1) =    -13.51590  eV     1   --> A              
     e(  2 -  2) =    -13.34653  eV     1   --> A              
     e(  3 -  3) =     -1.92980  eV     1   --> A              
     e(  4 -  4) =     -0.48895  eV     1   --> A              
     e(  5 -  5) =      1.95383  eV     1   --> A              
     e(  6 -  6) =      2.25841  eV     1   --> A              
     e(  7 -  7) =      2.36519  eV     1   --> A              
     e(  8 -  8) =      2.66673  eV     1   --> A              
     e(  9 -  9) =      9.46232  eV     1   --> A              
     e( 10 - 10) =     13.95066  eV     1   --> A              
     e( 11 - 11) =     13.96483  eV     1   --> A              
     e( 12 - 12) =     14.51623  eV     1   --> A              
     e( 13 - 13) =     15.99645  eV     1   --> A              
     e( 14 - 14) =     16.24198  eV     1   --> A              
     e( 15 - 15) =     16.64311  eV     1   --> A              
     e( 16 - 16) =     17.68172  eV     1   --> A              
     e( 17 - 17) =     18.00910  eV     1   --> A              
     e( 18 - 18) =     18.24775  eV     1   --> A              
     e( 19 - 19) =     22.72112  eV     1   --> A              
     e( 20 - 20) =     28.40081  eV     1   --> A              

 **************************************************************************

 **************************************************************************

                    xk=(   0.11585,   0.00000,  -0.00004  )

     Band symmetry, C_1 (1)     point group:

     e(  1 -  1) =    -13.45509  eV     1   --> A              
     e(  2 -  2) =    -13.29167  eV     1   --> A              
     e(  3 -  3) =     -1.85439  eV     1   --> A              
     e(  4 -  4) =     -0.41940  eV     1   --> A              
     e(  5 -  5) =      1.73335  eV     1   --> A              
     e(  6 -  6) =      2.12757  eV     1   --> A              
     e(  7 -  7) =      2.16916  eV     1   --> A              
     e(  8 -  8) =      2.56342  eV     1   --> A              
     e(  9 -  9) =      9.54827  eV     1   --> A              
     e( 10 - 10) =     13.96587  eV     1   --> A              
     e( 11 - 11) =     14.00894  eV     1   --> A              
     e( 12 - 12) =     14.71874  eV     1   --> A              
     e( 13 - 13) =     15.98996  eV     1   --> A              
     e( 14 - 14) =     16.03979  eV     1   --> A              
     e( 15 - 15) =     16.80284  eV     1   --> A              
     e( 16 - 16) =     17.85326  eV     1   --> A              
     e( 17 - 17) =     18.11615  eV     1   --> A              
     e( 18 - 18) =     18.15325  eV     1   --> A              
     e( 19 - 19) =     22.82530  eV     1   --> A              
     e( 20 - 20) =     28.38829  eV     1   --> A              

 **************************************************************************

 **************************************************************************

                    xk=(   0.13240,   0.00000,  -0.00005  )

     Band symmetry, C_1 (1)     point group:

     e(  1 -  1) =    -13.38532  eV     1   --> A              
     e(  2 -  2) =    -13.22828  eV     1   --> A              
     e(  3 -  3) =     -1.76757  eV     1   --> A              
     e(  4 -  4) =     -0.33939  eV     1   --> A              
     e(  5 -  5) =      1.49185  eV     1   --> A              
     e(  6 -  6) =      1.94950  eV     1   --> A              
     e(  7 -  7) =      1.98340  eV     1   --> A              
     e(  8 -  8) =      2.44641  eV     1   --> A              
     e(  9 -  9) =      9.64642  eV     1   --> A              
     e( 10 - 10) =     13.97694  eV     1   --> A              
     e( 11 - 11) =     14.06257  eV     1   --> A              
     e( 12 - 12) =     14.92974  eV     1   --> A              
     e( 13 - 13) =     15.81147  eV     1   --> A              
     e( 14 - 14) =     15.99213  eV     1   --> A              
     e( 15 - 15) =     16.95982  eV     1   --> A              
     e( 16 - 16) =     17.94209  eV     1   --> A              
     e( 17 - 17) =     18.10021  eV     1   --> A              
     e( 18 - 18) =     18.32026  eV     1   --> A              
     e( 19 - 19) =     22.94118  eV     1   --> A              
     e( 20 - 20) =     28.07403  eV     1   --> A              

 **************************************************************************

 **************************************************************************

                    xk=(   0.14895,   0.00000,  -0.00006  )

     Band symmetry, C_1 (1)     point group:

     e(  1 -  1) =    -13.30682  eV     1   --> A              
     e(  2 -  2) =    -13.15623  eV     1   --> A              
     e(  3 -  3) =     -1.66934  eV     1   --> A              
     e(  4 -  4) =     -0.24906  eV     1   --> A              
     e(  5 -  5) =      1.23289  eV     1   --> A              
     e(  6 -  6) =      1.71715  eV     1   --> A              
     e(  7 -  7) =      1.81921  eV     1   --> A              
     e(  8 -  8) =      2.31656  eV     1   --> A              
     e(  9 -  9) =      9.75655  eV     1   --> A              
     e( 10 - 10) =     13.98181  eV     1   --> A              
     e( 11 - 11) =     14.12556  eV     1   --> A              
     e( 12 - 12) =     15.14238  eV     1   --> A              
     e( 13 - 13) =     15.56080  eV     1   --> A              
     e( 14 - 14) =     16.00295  eV     1   --> A              
     e( 15 - 15) =     17.10887  eV     1   --> A              
     e( 16 - 16) =     17.80606  eV     1   --> A              
     e( 17 - 17) =     18.33639  eV     1   --> A              
     e( 18 - 18) =     18.52336  eV     1   --> A              
     e( 19 - 19) =     23.06755  eV     1   --> A              
     e( 20 - 20) =     27.70246  eV     1   --> A              

 **************************************************************************

 **************************************************************************

                    xk=(   0.16550,   0.00000,  -0.00006  )

     Band symmetry, C_1 (1)     point group:

     e(  1 -  1) =    -13.21992  eV     1   --> A              
     e(  2 -  2) =    -13.07536  eV     1   --> A              
     e(  3 -  3) =     -1.55982  eV     1   --> A              
     e(  4 -  4) =     -0.14854  eV     1   --> A              
     e(  5 -  5) =      0.95976  eV     1   --> A              
     e(  6 -  6) =      1.47005  eV     1   --> A              
     e(  7 -  7) =      1.64114  eV     1   --> A              
     e(  8 -  8) =      2.17480  eV     1   --> A              
     e(  9 -  9) =      9.87853  eV     1   --> A              
     e( 10 - 10) =     13.97704  eV     1   --> A              
     e( 11 - 11) =     14.19824  eV     1   --> A              
     e( 12 - 12) =     15.28944  eV     1   --> A              
     e( 13 - 13) =     15.35067  eV     1   --> A              
     e( 14 - 14) =     16.02435  eV     1   --> A              
     e( 15 - 15) =     17.24780  eV     1   --> A              
     e( 16 - 16) =     17.65564  eV     1   --> A              
     e( 17 - 17) =     18.61956  eV     1   --> A              
     e( 18 - 18) =     18.76186  eV     1   --> A              
     e( 19 - 19) =     23.20330  eV     1   --> A              
     e( 20 - 20) =     27.28396  eV     1   --> A              

 **************************************************************************

 **************************************************************************

                    xk=(   0.18206,   0.00000,  -0.00007  )

     Band symmetry, C_1 (1)     point group:

     e(  1 -  1) =    -13.12503  eV     1   --> A              
     e(  2 -  2) =    -12.98541  eV     1   --> A              
     e(  3 -  3) =     -1.43911  eV     1   --> A              
     e(  4 -  4) =     -0.03799  eV     1   --> A              
     e(  5 -  5) =      0.67540  eV     1   --> A              
     e(  6 -  6) =      1.21174  eV     1   --> A              
     e(  7 -  7) =      1.44971  eV     1   --> A              
     e(  8 -  8) =      2.02213  eV     1   --> A              
     e(  9 -  9) =     10.01226  eV     1   --> A              
     e( 10 - 10) =     13.95850  eV     1   --> A              
     e( 11 - 11) =     14.28098  eV     1   --> A              
     e( 12 - 12) =     14.99988  eV     1   --> A              
     e( 13 - 13) =     15.54994  eV     1   --> A              
     e( 14 - 14) =     16.05734  eV     1   --> A              
     e( 15 - 15) =     17.37198  eV     1   --> A              
     e( 16 - 16) =     17.51356  eV     1   --> A              
     e( 17 - 17) =     18.93269  eV     1   --> A              
     e( 18 - 18) =     19.03683  eV     1   --> A              
     e( 19 - 19) =     23.34743  eV     1   --> A              
     e( 20 - 20) =     26.83098  eV     1   --> A              

 **************************************************************************

 **************************************************************************

                    xk=(   0.19861,   0.00000,  -0.00008  )

     Band symmetry, C_1 (1)     point group:

     e(  1 -  1) =    -13.02272  eV     1   --> A              
     e(  2 -  2) =    -12.88602  eV     1   --> A              
     e(  3 -  3) =     -1.30735  eV     1   --> A              
     e(  4 -  4) =      0.08239  eV     1   --> A              
     e(  5 -  5) =      0.38239  eV     1   --> A              
     e(  6 -  6) =      0.94475  eV     1   --> A              
     e(  7 -  7) =      1.24615  eV     1   --> A              
     e(  8 -  8) =      1.85963  eV     1   --> A              
     e(  9 -  9) =     10.15767  eV     1   --> A              
     e( 10 - 10) =     13.92136  eV     1   --> A              
     e( 11 - 11) =     14.37404  eV     1   --> A              
     e( 12 - 12) =     14.69475  eV     1   --> A              
     e( 13 - 13) =     15.73695  eV     1   --> A              
     e( 14 - 14) =     16.10293  eV     1   --> A              
     e( 15 - 15) =     17.35102  eV     1   --> A              
     e( 16 - 16) =     17.51913  eV     1   --> A              
     e( 17 - 17) =     19.26883  eV     1   --> A              
     e( 18 - 18) =     19.34741  eV     1   --> A              
     e( 19 - 19) =     23.49905  eV     1   --> A              
     e( 20 - 20) =     26.35500  eV     1   --> A              

 **************************************************************************

 **************************************************************************

                    xk=(   0.21516,   0.00000,  -0.00008  )

     Band symmetry, C_1 (1)     point group:

     e(  1 -  1) =    -12.91368  eV     1   --> A              
     e(  2 -  2) =    -12.77675  eV     1   --> A              
     e(  3 -  3) =     -1.16462  eV     1   --> A              
     e(  4 -  4) =      0.08294  eV     1   --> A              
     e(  5 -  5) =      0.21238  eV     1   --> A              
     e(  6 -  6) =      0.67136  eV     1   --> A              
     e(  7 -  7) =      1.03168  eV     1   --> A              
     e(  8 -  8) =      1.68829  eV     1   --> A              
     e(  9 -  9) =     10.31470  eV     1   --> A              
     e( 10 - 10) =     13.86014  eV     1   --> A              
     e( 11 - 11) =     14.37721  eV     1   --> A              
     e( 12 - 12) =     14.47768  eV     1   --> A              
     e( 13 - 13) =     15.90969  eV     1   --> A              
     e( 14 - 14) =     16.16231  eV     1   --> A              
     e( 15 - 15) =     17.23110  eV     1   --> A              
     e( 16 - 16) =     17.63427  eV     1   --> A              
     e( 17 - 17) =     19.62377  eV     1   --> A              
     e( 18 - 18) =     19.68942  eV     1   --> A              
     e( 19 - 19) =     23.65733  eV     1   --> A              
     e( 20 - 20) =     25.86539  eV     1   --> A              

 **************************************************************************

 **************************************************************************

                    xk=(   0.23171,   0.00000,  -0.00009  )

     Band symmetry, C_1 (1)     point group:

     e(  1 -  1) =    -12.79857  eV     1   --> A              
     e(  2 -  2) =    -12.65717  eV     1   --> A              
     e(  3 -  3) =     -1.01107  eV     1   --> A              
     e(  4 -  4) =     -0.22089  eV     1   --> A              
     e(  5 -  5) =      0.35156  eV     1   --> A              
     e(  6 -  6) =      0.39389  eV     1   --> A              
     e(  7 -  7) =      0.80765  eV     1   --> A              
     e(  8 -  8) =      1.50921  eV     1   --> A              
     e(  9 -  9) =     10.48332  eV     1   --> A              
     e( 10 - 10) =     13.76712  eV     1   --> A              
     e( 11 - 11) =     14.05326  eV     1   --> A              
     e( 12 - 12) =     14.59203  eV     1   --> A              
     e( 13 - 13) =     16.06637  eV     1   --> A              
     e( 14 - 14) =     16.23770  eV     1   --> A              
     e( 15 - 15) =     17.12751  eV     1   --> A              
     e( 16 - 16) =     17.75067  eV     1   --> A              
     e( 17 - 17) =     19.99505  eV     1   --> A              
     e( 18 - 18) =     20.05628  eV     1   --> A              
     e( 19 - 19) =     23.82117  eV     1   --> A              
     e( 20 - 20) =     25.36970  eV     1   --> A              

 **************************************************************************

 **************************************************************************

                    xk=(   0.24826,   0.00000,  -0.00009  )

     Band symmetry, C_1 (1)     point group:

     e(  1 -  1) =    -12.67803  eV     1   --> A              
     e(  2 -  2) =    -12.52697  eV     1   --> A              
     e(  3 -  3) =     -0.84692  eV     1   --> A              
     e(  4 -  4) =     -0.52743  eV     1   --> A              
     e(  5 -  5) =      0.11353  eV     1   --> A              
     e(  6 -  6) =      0.50032  eV     1   --> A              
     e(  7 -  7) =      0.57535  eV     1   --> A              
     e(  8 -  8) =      1.32347  eV     1   --> A              
     e(  9 -  9) =     10.66348  eV     1   --> A              
     e( 10 - 10) =     13.61152  eV     1   --> A              
     e( 11 - 11) =     13.75276  eV     1   --> A              
     e( 12 - 12) =     14.71716  eV     1   --> A              
     e( 13 - 13) =     16.20454  eV     1   --> A              
     e( 14 - 14) =     16.33263  eV     1   --> A              
     e( 15 - 15) =     17.04784  eV     1   --> A              
     e( 16 - 16) =     17.86571  eV     1   --> A              
     e( 17 - 17) =     20.37671  eV     1   --> A              
     e( 18 - 18) =     20.44425  eV     1   --> A              
     e( 19 - 19) =     23.98771  eV     1   --> A              
     e( 20 - 20) =     24.87508  eV     1   --> A              

 **************************************************************************

 **************************************************************************

                    xk=(   0.26481,   0.00000,  -0.00010  )

     Band symmetry, C_1 (1)     point group:

     e(  1 -  1) =    -12.55249  eV     1   --> A              
     e(  2 -  2) =    -12.38604  eV     1   --> A              
     e(  3 -  3) =     -0.83515  eV     1   --> A              
     e(  4 -  4) =     -0.67234  eV     1   --> A              
     e(  5 -  5) =     -0.16723  eV     1   --> A              
     e(  6 -  6) =      0.33606  eV     1   --> A              
     e(  7 -  7) =      0.65759  eV     1   --> A              
     e(  8 -  8) =      1.13212  eV     1   --> A              
     e(  9 -  9) =     10.85515  eV     1   --> A              
     e( 10 - 10) =     13.31906  eV     1   --> A              
     e( 11 - 11) =     13.55112  eV     1   --> A              
     e( 12 - 12) =     14.85306  eV     1   --> A              
     e( 13 - 13) =     16.32531  eV     1   --> A              
     e( 14 - 14) =     16.44755  eV     1   --> A              
     e( 15 - 15) =     16.99438  eV     1   --> A              
     e( 16 - 16) =     17.97967  eV     1   --> A              
     e( 17 - 17) =     20.75901  eV     1   --> A              
     e( 18 - 18) =     20.85330  eV     1   --> A              
     e( 19 - 19) =     24.13352  eV     1   --> A              
     e( 20 - 20) =     24.40779  eV     1   --> A              

 **************************************************************************

 **************************************************************************

                    xk=(   0.28136,   0.00000,  -0.00011  )

     Band symmetry, C_1 (1)     point group:

     e(  1 -  1) =    -12.42225  eV     1   --> A              
     e(  2 -  2) =    -12.23451  eV     1   --> A              
     e(  3 -  3) =     -1.14287  eV     1   --> A              
     e(  4 -  4) =     -0.48799  eV     1   --> A              
     e(  5 -  5) =     -0.44672  eV     1   --> A              
     e(  6 -  6) =      0.09099  eV     1   --> A              
     e(  7 -  7) =      0.82329  eV     1   --> A              
     e(  8 -  8) =      0.93616  eV     1   --> A              
     e(  9 -  9) =     11.05825  eV     1   --> A              
     e( 10 - 10) =     12.97340  eV     1   --> A              
     e( 11 - 11) =     13.36775  eV     1   --> A              
     e( 12 - 12) =     14.99960  eV     1   --> A              
     e( 13 - 13) =     16.43762  eV     1   --> A              
     e( 14 - 14) =     16.57483  eV     1   --> A              
     e( 15 - 15) =     16.96675  eV     1   --> A              
     e( 16 - 16) =     18.09285  eV     1   --> A              
     e( 17 - 17) =     21.13516  eV     1   --> A              
     e( 18 - 18) =     21.28021  eV     1   --> A              
     e( 19 - 19) =     23.85579  eV     1   --> A              
     e( 20 - 20) =     24.37167  eV     1   --> A              

 **************************************************************************

 **************************************************************************

                    xk=(   0.29791,   0.00000,  -0.00011  )

     Band symmetry, C_1 (1)     point group:

     e(  1 -  1) =    -12.28750  eV     1   --> A              
     e(  2 -  2) =    -12.07263  eV     1   --> A              
     e(  3 -  3) =     -1.44951  eV     1   --> A              
     e(  4 -  4) =     -0.72501  eV     1   --> A              
     e(  5 -  5) =     -0.29262  eV     1   --> A              
     e(  6 -  6) =     -0.15867  eV     1   --> A              
     e(  7 -  7) =      0.73659  eV     1   --> A              
     e(  8 -  8) =      0.99701  eV     1   --> A              
     e(  9 -  9) =     11.27272  eV     1   --> A              
     e( 10 - 10) =     12.61650  eV     1   --> A              
     e( 11 - 11) =     13.16519  eV     1   --> A              
     e( 12 - 12) =     15.15660  eV     1   --> A              
     e( 13 - 13) =     16.54941  eV     1   --> A              
     e( 14 - 14) =     16.70780  eV     1   --> A              
     e( 15 - 15) =     16.96234  eV     1   --> A              
     e( 16 - 16) =     18.20552  eV     1   --> A              
     e( 17 - 17) =     21.50135  eV     1   --> A              
     e( 18 - 18) =     21.71883  eV     1   --> A              
     e( 19 - 19) =     23.38196  eV     1   --> A              
     e( 20 - 20) =     24.53836  eV     1   --> A              

 **************************************************************************

 **************************************************************************

                    xk=(   0.31446,   0.00000,  -0.00012  )

     Band symmetry, C_1 (1)     point group:

     e(  1 -  1) =    -12.14845  eV     1   --> A              
     e(  2 -  2) =    -11.90070  eV     1   --> A              
     e(  3 -  3) =     -1.75406  eV     1   --> A              
     e(  4 -  4) =     -0.99903  eV     1   --> A              
     e(  5 -  5) =     -0.41184  eV     1   --> A              
     e(  6 -  6) =     -0.08808  eV     1   --> A              
     e(  7 -  7) =      0.53431  eV     1   --> A              
     e(  8 -  8) =      1.17824  eV     1   --> A              
     e(  9 -  9) =     11.49846  eV     1   --> A              
     e( 10 - 10) =     12.25490  eV     1   --> A              
     e( 11 - 11) =     12.94249  eV     1   --> A              
     e( 12 - 12) =     15.32382  eV     1   --> A              
     e( 13 - 13) =     16.66295  eV     1   --> A              
     e( 14 - 14) =     16.84499  eV     1   --> A              
     e( 15 - 15) =     16.97713  eV     1   --> A              
     e( 16 - 16) =     18.31795  eV     1   --> A              
     e( 17 - 17) =     21.85367  eV     1   --> A              
     e( 18 - 18) =     22.16274  eV     1   --> A              
     e( 19 - 19) =     22.90986  eV     1   --> A              
     e( 20 - 20) =     24.70686  eV     1   --> A              

 **************************************************************************

 **************************************************************************

                    xk=(   0.33101,   0.00000,  -0.00013  )

     Band symmetry, C_1 (1)     point group:

     e(  1 -  1) =    -12.00539  eV     1   --> A              
     e(  2 -  2) =    -11.71906  eV     1   --> A              
     e(  3 -  3) =     -2.05576  eV     1   --> A              
     e(  4 -  4) =     -1.26816  eV     1   --> A              
     e(  5 -  5) =     -0.66743  eV     1   --> A              
     e(  6 -  6) =      0.12586  eV     1   --> A              
     e(  7 -  7) =      0.33025  eV     1   --> A              
     e(  8 -  8) =      1.36647  eV     1   --> A              
     e(  9 -  9) =     11.73534  eV     1   --> A              
     e( 10 - 10) =     11.89116  eV     1   --> A              
     e( 11 - 11) =     12.70305  eV     1   --> A              
     e( 12 - 12) =     15.50094  eV     1   --> A              
     e( 13 - 13) =     16.77744  eV     1   --> A              
     e( 14 - 14) =     16.98754  eV     1   --> A              
     e( 15 - 15) =     17.00628  eV     1   --> A              
     e( 16 - 16) =     18.43024  eV     1   --> A              
     e( 17 - 17) =     22.18348  eV     1   --> A              
     e( 18 - 18) =     22.45149  eV     1   --> A              
     e( 19 - 19) =     22.60614  eV     1   --> A              
     e( 20 - 20) =     24.86180  eV     1   --> A              

 **************************************************************************

 **************************************************************************

                    xk=(   0.34756,   0.00000,  -0.00013  )

     Band symmetry, C_1 (1)     point group:

     e(  1 -  1) =    -11.85868  eV     1   --> A              
     e(  2 -  2) =    -11.52799  eV     1   --> A              
     e(  3 -  3) =     -2.35384  eV     1   --> A              
     e(  4 -  4) =     -1.53105  eV     1   --> A              
     e(  5 -  5) =     -0.92441  eV     1   --> A              
     e(  6 -  6) =      0.12522  eV     1   --> A              
     e(  7 -  7) =      0.34887  eV     1   --> A              
     e(  8 -  8) =      1.56113  eV     1   --> A              
     e(  9 -  9) =     11.52688  eV     1   --> A              
     e( 10 - 10) =     11.98324  eV     1   --> A              
     e( 11 - 11) =     12.45099  eV     1   --> A              
     e( 12 - 12) =     15.68751  eV     1   --> A              
     e( 13 - 13) =     16.89122  eV     1   --> A              
     e( 14 - 14) =     17.04413  eV     1   --> A              
     e( 15 - 15) =     17.13749  eV     1   --> A              
     e( 16 - 16) =     18.54266  eV     1   --> A              
     e( 17 - 17) =     21.98595  eV     1   --> A              
     e( 18 - 18) =     22.51219  eV     1   --> A              
     e( 19 - 19) =     23.04001  eV     1   --> A              
     e( 20 - 20) =     24.79929  eV     1   --> A              

 **************************************************************************

 **************************************************************************

                    xk=(   0.36411,   0.00000,  -0.00014  )

     Band symmetry, C_1 (1)     point group:

     e(  1 -  1) =    -11.70886  eV     1   --> A              
     e(  2 -  2) =    -11.32775  eV     1   --> A              
     e(  3 -  3) =     -2.64775  eV     1   --> A              
     e(  4 -  4) =     -1.78653  eV     1   --> A              
     e(  5 -  5) =     -1.18179  eV     1   --> A              
     e(  6 -  6) =     -0.07993  eV     1   --> A              
     e(  7 -  7) =      0.58046  eV     1   --> A              
     e(  8 -  8) =      1.76146  eV     1   --> A              
     e(  9 -  9) =     11.16353  eV     1   --> A              
     e( 10 - 10) =     12.18776  eV     1   --> A              
     e( 11 - 11) =     12.24445  eV     1   --> A              
     e( 12 - 12) =     15.88302  eV     1   --> A              
     e( 13 - 13) =     17.00280  eV     1   --> A              
     e( 14 - 14) =     17.08583  eV     1   --> A              
     e( 15 - 15) =     17.29537  eV     1   --> A              
     e( 16 - 16) =     18.65549  eV     1   --> A              
     e( 17 - 17) =     21.54781  eV     1   --> A              
     e( 18 - 18) =     22.80201  eV     1   --> A              
     e( 19 - 19) =     23.45663  eV     1   --> A              
     e( 20 - 20) =     24.50136  eV     1   --> A              

 **************************************************************************

 **************************************************************************

                    xk=(   0.38066,   0.00000,  -0.00015  )

     Band symmetry, C_1 (1)     point group:

     e(  1 -  1) =    -11.55656  eV     1   --> A              
     e(  2 -  2) =    -11.11862  eV     1   --> A              
     e(  3 -  3) =     -2.93697  eV     1   --> A              
     e(  4 -  4) =     -2.03335  eV     1   --> A              
     e(  5 -  5) =     -1.43868  eV     1   --> A              
     e(  6 -  6) =     -0.28449  eV     1   --> A              
     e(  7 -  7) =      0.82019  eV     1   --> A              
     e(  8 -  8) =      1.96668  eV     1   --> A              
     e(  9 -  9) =     10.80214  eV     1   --> A              
     e( 10 - 10) =     11.92383  eV     1   --> A              
     e( 11 - 11) =     12.51200  eV     1   --> A              
     e( 12 - 12) =     16.08686  eV     1   --> A              
     e( 13 - 13) =     17.11104  eV     1   --> A              
     e( 14 - 14) =     17.12618  eV     1   --> A              
     e( 15 - 15) =     17.46142  eV     1   --> A              
     e( 16 - 16) =     18.76916  eV     1   --> A              
     e( 17 - 17) =     21.12139  eV     1   --> A              
     e( 18 - 18) =     23.06701  eV     1   --> A              
     e( 19 - 19) =     23.84354  eV     1   --> A              
     e( 20 - 20) =     24.23789  eV     1   --> A              

 **************************************************************************

 **************************************************************************

                    xk=(   0.39721,   0.00000,  -0.00015  )

     Band symmetry, C_1 (1)     point group:

     e(  1 -  1) =    -11.40256  eV     1   --> A              
     e(  2 -  2) =    -10.90085  eV     1   --> A              
     e(  3 -  3) =     -3.22103  eV     1   --> A              
     e(  4 -  4) =     -2.27027  eV     1   --> A              
     e(  5 -  5) =     -1.69421  eV     1   --> A              
     e(  6 -  6) =     -0.48776  eV     1   --> A              
     e(  7 -  7) =      1.06747  eV     1   --> A              
     e(  8 -  8) =      2.17589  eV     1   --> A              
     e(  9 -  9) =     10.44374  eV     1   --> A              
     e( 10 - 10) =     11.65639  eV     1   --> A              
     e( 11 - 11) =     12.79174  eV     1   --> A              
     e( 12 - 12) =     16.29824  eV     1   --> A              
     e( 13 - 13) =     17.15981  eV     1   --> A              
     e( 14 - 14) =     17.21598  eV     1   --> A              
     e( 15 - 15) =     17.63461  eV     1   --> A              
     e( 16 - 16) =     18.88435  eV     1   --> A              
     e( 17 - 17) =     20.70917  eV     1   --> A              
     e( 18 - 18) =     23.30203  eV     1   --> A              
     e( 19 - 19) =     24.01259  eV     1   --> A              
     e( 20 - 20) =     24.18399  eV     1   --> A              

 **************************************************************************

 **************************************************************************

                    xk=(   0.41376,   0.00000,  -0.00016  )

     Band symmetry, C_1 (1)     point group:

     e(  1 -  1) =    -11.24777  eV     1   --> A              
     e(  2 -  2) =    -10.67473  eV     1   --> A              
     e(  3 -  3) =     -3.49952  eV     1   --> A              
     e(  4 -  4) =     -2.49594  eV     1   --> A              
     e(  5 -  5) =     -1.94753  eV     1   --> A              
     e(  6 -  6) =     -0.68908  eV     1   --> A              
     e(  7 -  7) =      1.32164  eV     1   --> A              
     e(  8 -  8) =      2.38804  eV     1   --> A              
     e(  9 -  9) =     10.08925  eV     1   --> A              
     e( 10 - 10) =     11.39024  eV     1   --> A              
     e( 11 - 11) =     13.08158  eV     1   --> A              
     e( 12 - 12) =     16.51612  eV     1   --> A              
     e( 13 - 13) =     17.18315  eV     1   --> A              
     e( 14 - 14) =     17.31642  eV     1   --> A              
     e( 15 - 15) =     17.81317  eV     1   --> A              
     e( 16 - 16) =     19.00201  eV     1   --> A              
     e( 17 - 17) =     20.31229  eV     1   --> A              
     e( 18 - 18) =     23.50127  eV     1   --> A              
     e( 19 - 19) =     23.82892  eV     1   --> A              
     e( 20 - 20) =     24.45272  eV     1   --> A              

 **************************************************************************

 **************************************************************************

                    xk=(   0.43031,   0.00000,  -0.00016  )

     Band symmetry, C_1 (1)     point group:

     e(  1 -  1) =    -11.09322  eV     1   --> A              
     e(  2 -  2) =    -10.44052  eV     1   --> A              
     e(  3 -  3) =     -3.77204  eV     1   --> A              
     e(  4 -  4) =     -2.70897  eV     1   --> A              
     e(  5 -  5) =     -2.19776  eV     1   --> A              
     e(  6 -  6) =     -0.88779  eV     1   --> A              
     e(  7 -  7) =      1.58190  eV     1   --> A              
     e(  8 -  8) =      2.60204  eV     1   --> A              
     e(  9 -  9) =      9.73948  eV     1   --> A              
     e( 10 - 10) =     11.12819  eV     1   --> A              
     e( 11 - 11) =     13.38104  eV     1   --> A              
     e( 12 - 12) =     16.73934  eV     1   --> A              
     e( 13 - 13) =     17.19243  eV     1   --> A              
     e( 14 - 14) =     17.41218  eV     1   --> A              
     e( 15 - 15) =     17.99496  eV     1   --> A              
     e( 16 - 16) =     19.12350  eV     1   --> A              
     e( 17 - 17) =     19.93175  eV     1   --> A              
     e( 18 - 18) =     23.65211  eV     1   --> A              
     e( 19 - 19) =     23.69210  eV     1   --> A              
     e( 20 - 20) =     24.59172  eV     1   --> A              

 **************************************************************************

 **************************************************************************

                    xk=(   0.44686,   0.00000,  -0.00017  )

     Band symmetry, C_1 (1)     point group:

     e(  1 -  1) =    -10.94018  eV     1   --> A              
     e(  2 -  2) =    -10.19859  eV     1   --> A              
     e(  3 -  3) =     -4.03840  eV     1   --> A              
     e(  4 -  4) =     -2.90802  eV     1   --> A              
     e(  5 -  5) =     -2.44423  eV     1   --> A              
     e(  6 -  6) =     -1.08345  eV     1   --> A              
     e(  7 -  7) =      1.84728  eV     1   --> A              
     e(  8 -  8) =      2.81666  eV     1   --> A              
     e(  9 -  9) =      9.39511  eV     1   --> A              
     e( 10 - 10) =     10.87278  eV     1   --> A              
     e( 11 - 11) =     13.68956  eV     1   --> A              
     e( 12 - 12) =     16.96631  eV     1   --> A              
     e( 13 - 13) =     17.18531  eV     1   --> A              
     e( 14 - 14) =     17.50240  eV     1   --> A              
     e( 15 - 15) =     18.17723  eV     1   --> A              
     e( 16 - 16) =     19.25034  eV     1   --> A              
     e( 17 - 17) =     19.56859  eV     1   --> A              
     e( 18 - 18) =     23.59280  eV     1   --> A              
     e( 19 - 19) =     23.74700  eV     1   --> A              
     e( 20 - 20) =     24.52711  eV     1   --> A              

 **************************************************************************

 **************************************************************************

                    xk=(   0.46341,   0.00000,  -0.00018  )

     Band symmetry, C_1 (1)     point group:

     e(  1 -  1) =    -10.79000  eV     1   --> A              
     e(  2 -  2) =     -9.94932  eV     1   --> A              
     e(  3 -  3) =     -4.29827  eV     1   --> A              
     e(  4 -  4) =     -3.09157  eV     1   --> A              
     e(  5 -  5) =     -2.68607  eV     1   --> A              
     e(  6 -  6) =     -1.27540  eV     1   --> A              
     e(  7 -  7) =      2.11648  eV     1   --> A              
     e(  8 -  8) =      3.03054  eV     1   --> A              
     e(  9 -  9) =      9.05688  eV     1   --> A              
     e( 10 - 10) =     10.62651  eV     1   --> A              
     e( 11 - 11) =     14.00646  eV     1   --> A              
     e( 12 - 12) =     17.15878  eV     1   --> A              
     e( 13 - 13) =     17.19704  eV     1   --> A              
     e( 14 - 14) =     17.58609  eV     1   --> A              
     e( 15 - 15) =     18.35706  eV     1   --> A              
     e( 16 - 16) =     19.22307  eV     1   --> A              
     e( 17 - 17) =     19.38507  eV     1   --> A              
     e( 18 - 18) =     23.54383  eV     1   --> A              
     e( 19 - 19) =     23.74604  eV     1   --> A              
     e( 20 - 20) =     24.41840  eV     1   --> A              

 **************************************************************************

 **************************************************************************

                    xk=(   0.47996,   0.00000,  -0.00018  )

     Band symmetry, C_1 (1)     point group:

     e(  1 -  1) =    -10.64422  eV     1   --> A              
     e(  2 -  2) =     -9.69316  eV     1   --> A              
     e(  3 -  3) =     -4.55140  eV     1   --> A              
     e(  4 -  4) =     -3.25808  eV     1   --> A              
     e(  5 -  5) =     -2.92243  eV     1   --> A              
     e(  6 -  6) =     -1.46312  eV     1   --> A              
     e(  7 -  7) =      2.38805  eV     1   --> A              
     e(  8 -  8) =      3.24238  eV     1   --> A              
     e(  9 -  9) =      8.72527  eV     1   --> A              
     e( 10 - 10) =     10.39168  eV     1   --> A              
     e( 11 - 11) =     14.33082  eV     1   --> A              
     e( 12 - 12) =     17.11792  eV     1   --> A              
     e( 13 - 13) =     17.42442  eV     1   --> A              
     e( 14 - 14) =     17.66212  eV     1   --> A              
     e( 15 - 15) =     18.53172  eV     1   --> A              
     e( 16 - 16) =     18.89770  eV     1   --> A              
     e( 17 - 17) =     19.52778  eV     1   --> A              
     e( 18 - 18) =     23.53887  eV     1   --> A              
     e( 19 - 19) =     23.64686  eV     1   --> A              
     e( 20 - 20) =     24.34875  eV     1   --> A              

 **************************************************************************

 **************************************************************************

                    xk=(   0.49651,   0.00000,  -0.00019  )

     Band symmetry, C_1 (1)     point group:

     e(  1 -  1) =    -10.50453  eV     1   --> A              
     e(  2 -  2) =     -9.43069  eV     1   --> A              
     e(  3 -  3) =     -4.79762  eV     1   --> A              
     e(  4 -  4) =     -3.40611  eV     1   --> A              
     e(  5 -  5) =     -3.15234  eV     1   --> A              
     e(  6 -  6) =     -1.64604  eV     1   --> A              
     e(  7 -  7) =      2.65981  eV     1   --> A              
     e(  8 -  8) =      3.45093  eV     1   --> A              
     e(  9 -  9) =      8.40084  eV     1   --> A              
     e( 10 - 10) =     10.17068  eV     1   --> A              
     e( 11 - 11) =     14.66145  eV     1   --> A              
     e( 12 - 12) =     17.06021  eV     1   --> A              
     e( 13 - 13) =     17.64865  eV     1   --> A              
     e( 14 - 14) =     17.72987  eV     1   --> A              
     e( 15 - 15) =     18.59243  eV     1   --> A              
     e( 16 - 16) =     18.69919  eV     1   --> A              
     e( 17 - 17) =     19.68011  eV     1   --> A              
     e( 18 - 18) =     23.48728  eV     1   --> A              
     e( 19 - 19) =     23.57543  eV     1   --> A              
     e( 20 - 20) =     24.30132  eV     1   --> A              

 **************************************************************************

 **************************************************************************

                    xk=(   0.51306,   0.00000,  -0.00020  )

     Band symmetry, C_1 (1)     point group:

     e(  1 -  1) =    -10.37265  eV     1   --> A              
     e(  2 -  2) =     -9.16257  eV     1   --> A              
     e(  3 -  3) =     -5.03672  eV     1   --> A              
     e(  4 -  4) =     -3.53443  eV     1   --> A              
     e(  5 -  5) =     -3.37437  eV     1   --> A              
     e(  6 -  6) =     -1.82354  eV     1   --> A              
     e(  7 -  7) =      2.92888  eV     1   --> A              
     e(  8 -  8) =      3.65565  eV     1   --> A              
     e(  9 -  9) =      8.08412  eV     1   --> A              
     e( 10 - 10) =      9.96590  eV     1   --> A              
     e( 11 - 11) =     14.99678  eV     1   --> A              
     e( 12 - 12) =     16.98958  eV     1   --> A              
     e( 13 - 13) =     17.78256  eV     1   --> A              
     e( 14 - 14) =     17.87026  eV     1   --> A              
     e( 15 - 15) =     18.30930  eV     1   --> A              
     e( 16 - 16) =     18.85823  eV     1   --> A              
     e( 17 - 17) =     19.84083  eV     1   --> A              
     e( 18 - 18) =     23.31136  eV     1   --> A              
     e( 19 - 19) =     23.64907  eV     1   --> A              
     e( 20 - 20) =     24.25161  eV     1   --> A              

 **************************************************************************

 **************************************************************************

                    xk=(   0.52962,   0.00000,  -0.00020  )

     Band symmetry, C_1 (1)     point group:

     e(  1 -  1) =    -10.25044  eV     1   --> A              
     e(  2 -  2) =     -8.88973  eV     1   --> A              
     e(  3 -  3) =     -5.26857  eV     1   --> A              
     e(  4 -  4) =     -3.64573  eV     1   --> A              
     e(  5 -  5) =     -3.58348  eV     1   --> A              
     e(  6 -  6) =     -1.99505  eV     1   --> A              
     e(  7 -  7) =      3.19087  eV     1   --> A              
     e(  8 -  8) =      3.85676  eV     1   --> A              
     e(  9 -  9) =      7.77545  eV     1   --> A              
     e( 10 - 10) =      9.77955  eV     1   --> A              
     e( 11 - 11) =     15.33456  eV     1   --> A              
     e( 12 - 12) =     16.90961  eV     1   --> A              
     e( 13 - 13) =     17.82788  eV     1   --> A              
     e( 14 - 14) =     18.04434  eV     1   --> A              
     e( 15 - 15) =     18.08055  eV     1   --> A              
     e( 16 - 16) =     19.00966  eV     1   --> A              
     e( 17 - 17) =     20.00656  eV     1   --> A              
     e( 18 - 18) =     23.14525  eV     1   --> A              
     e( 19 - 19) =     23.75406  eV     1   --> A              
     e( 20 - 20) =     24.19486  eV     1   --> A              

 **************************************************************************

 **************************************************************************

                    xk=(   0.54617,   0.00000,  -0.00021  )

     Band symmetry, C_1 (1)     point group:

     e(  1 -  1) =    -10.13967  eV     1   --> A              
     e(  2 -  2) =     -8.61334  eV     1   --> A              
     e(  3 -  3) =     -5.49301  eV     1   --> A              
     e(  4 -  4) =     -3.80341  eV     1   --> A              
     e(  5 -  5) =     -3.71366  eV     1   --> A              
     e(  6 -  6) =     -2.15972  eV     1   --> A              
     e(  7 -  7) =      3.43934  eV     1   --> A              
     e(  8 -  8) =      4.05647  eV     1   --> A              
     e(  9 -  9) =      7.47529  eV     1   --> A              
     e( 10 - 10) =      9.61387  eV     1   --> A              
     e( 11 - 11) =     15.67164  eV     1   --> A              
     e( 12 - 12) =     16.82436  eV     1   --> A              
     e( 13 - 13) =     17.80988  eV     1   --> A              
     e( 14 - 14) =     17.86357  eV     1   --> A              
     e( 15 - 15) =     18.26482  eV     1   --> A              
     e( 16 - 16) =     19.15518  eV     1   --> A              
     e( 17 - 17) =     20.17183  eV     1   --> A              
     e( 18 - 18) =     23.00427  eV     1   --> A              
     e( 19 - 19) =     23.88212  eV     1   --> A              
     e( 20 - 20) =     24.13701  eV     1   --> A              

 **************************************************************************

 **************************************************************************

                    xk=(   0.56272,   0.00000,  -0.00021  )

     Band symmetry, C_1 (1)     point group:

     e(  1 -  1) =    -10.04197  eV     1   --> A              
     e(  2 -  2) =     -8.33499  eV     1   --> A              
     e(  3 -  3) =     -5.70994  eV     1   --> A              
     e(  4 -  4) =     -3.99419  eV     1   --> A              
     e(  5 -  5) =     -3.77578  eV     1   --> A              
     e(  6 -  6) =     -2.31649  eV     1   --> A              
     e(  7 -  7) =      3.66527  eV     1   --> A              
     e(  8 -  8) =      4.25930  eV     1   --> A              
     e(  9 -  9) =      7.18398  eV     1   --> A              
     e( 10 - 10) =      9.47080  eV     1   --> A              
     e( 11 - 11) =     16.00338  eV     1   --> A              
     e( 12 - 12) =     16.73806  eV     1   --> A              
     e( 13 - 13) =     17.60230  eV     1   --> A              
     e( 14 - 14) =     17.88300  eV     1   --> A              
     e( 15 - 15) =     18.42893  eV     1   --> A              
     e( 16 - 16) =     19.29718  eV     1   --> A              
     e( 17 - 17) =     20.32929  eV     1   --> A              
     e( 18 - 18) =     22.89785  eV     1   --> A              
     e( 19 - 19) =     24.00667  eV     1   --> A              
     e( 20 - 20) =     24.10102  eV     1   --> A              

 **************************************************************************

 **************************************************************************

                    xk=(   0.57927,   0.00000,  -0.00022  )

     Band symmetry, C_1 (1)     point group:

     e(  1 -  1) =     -9.95872  eV     1   --> A              
     e(  2 -  2) =     -8.05692  eV     1   --> A              
     e(  3 -  3) =     -5.91923  eV     1   --> A              
     e(  4 -  4) =     -4.17416  eV     1   --> A              
     e(  5 -  5) =     -3.81161  eV     1   --> A              
     e(  6 -  6) =     -2.46399  eV     1   --> A              
     e(  7 -  7) =      3.85855  eV     1   --> A              
     e(  8 -  8) =      4.47112  eV     1   --> A              
     e(  9 -  9) =      6.90185  eV     1   --> A              
     e( 10 - 10) =      9.35180  eV     1   --> A              
     e( 11 - 11) =     16.32258  eV     1   --> A              
     e( 12 - 12) =     16.65492  eV     1   --> A              
     e( 13 - 13) =     17.42081  eV     1   --> A              
     e( 14 - 14) =     17.89494  eV     1   --> A              
     e( 15 - 15) =     18.56284  eV     1   --> A              
     e( 16 - 16) =     19.43763  eV     1   --> A              
     e( 17 - 17) =     20.47013  eV     1   --> A              
     e( 18 - 18) =     22.83020  eV     1   --> A              
     e( 19 - 19) =     24.00265  eV     1   --> A              
     e( 20 - 20) =     24.20283  eV     1   --> A              

 **************************************************************************

 **************************************************************************

                    xk=(   0.59582,   0.00000,  -0.00023  )

     Band symmetry, C_1 (1)     point group:

     e(  1 -  1) =     -9.89089  eV     1   --> A              
     e(  2 -  2) =     -7.78230  eV     1   --> A              
     e(  3 -  3) =     -6.12078  eV     1   --> A              
     e(  4 -  4) =     -4.33813  eV     1   --> A              
     e(  5 -  5) =     -3.82450  eV     1   --> A              
     e(  6 -  6) =     -2.59995  eV     1   --> A              
     e(  7 -  7) =      4.01195  eV     1   --> A              
     e(  8 -  8) =      4.69518  eV     1   --> A              
     e(  9 -  9) =      6.62920  eV     1   --> A              
     e( 10 - 10) =      9.25767  eV     1   --> A              
     e( 11 - 11) =     16.57672  eV     1   --> A              
     e( 12 - 12) =     16.62053  eV     1   --> A              
     e( 13 - 13) =     17.26884  eV     1   --> A              
     e( 14 - 14) =     17.90226  eV     1   --> A              
     e( 15 - 15) =     18.66262  eV     1   --> A              
     e( 16 - 16) =     19.57717  eV     1   --> A              
     e( 17 - 17) =     20.58455  eV     1   --> A              
     e( 18 - 18) =     22.79863  eV     1   --> A              
     e( 19 - 19) =     23.95764  eV     1   --> A              
     e( 20 - 20) =     24.31622  eV     1   --> A              

 **************************************************************************

 **************************************************************************

                    xk=(   0.61237,   0.00000,  -0.00023  )

     Band symmetry, C_1 (1)     point group:

     e(  1 -  1) =     -9.83898  eV     1   --> A              
     e(  2 -  2) =     -7.51579  eV     1   --> A              
     e(  3 -  3) =     -6.31455  eV     1   --> A              
     e(  4 -  4) =     -4.48132  eV     1   --> A              
     e(  5 -  5) =     -3.81799  eV     1   --> A              
     e(  6 -  6) =     -2.72084  eV     1   --> A              
     e(  7 -  7) =      4.12432  eV     1   --> A              
     e(  8 -  8) =      4.92938  eV     1   --> A              
     e(  9 -  9) =      6.36639  eV     1   --> A              
     e( 10 - 10) =      9.18823  eV     1   --> A              
     e( 11 - 11) =     16.51325  eV     1   --> A              
     e( 12 - 12) =     16.87416  eV     1   --> A              
     e( 13 - 13) =     17.14815  eV     1   --> A              
     e( 14 - 14) =     17.91236  eV     1   --> A              
     e( 15 - 15) =     18.72912  eV     1   --> A              
     e( 16 - 16) =     19.71375  eV     1   --> A              
     e( 17 - 17) =     20.66207  eV     1   --> A              
     e( 18 - 18) =     22.79226  eV     1   --> A              
     e( 19 - 19) =     23.92175  eV     1   --> A              
     e( 20 - 20) =     24.28117  eV     1   --> A              

 **************************************************************************

 **************************************************************************

                    xk=(   0.62892,   0.00000,  -0.00024  )

     Band symmetry, C_1 (1)     point group:

     e(  1 -  1) =     -9.80291  eV     1   --> A              
     e(  2 -  2) =     -7.26422  eV     1   --> A              
     e(  3 -  3) =     -6.50042  eV     1   --> A              
     e(  4 -  4) =     -4.59703  eV     1   --> A              
     e(  5 -  5) =     -3.79835  eV     1   --> A              
     e(  6 -  6) =     -2.82071  eV     1   --> A              
     e(  7 -  7) =      4.19879  eV     1   --> A              
     e(  8 -  8) =      5.16804  eV     1   --> A              
     e(  9 -  9) =      6.11363  eV     1   --> A              
     e( 10 - 10) =      9.14219  eV     1   --> A              
     e( 11 - 11) =     16.46293  eV     1   --> A              
     e( 12 - 12) =     17.05872  eV     1   --> A              
     e( 13 - 13) =     17.06753  eV     1   --> A              
     e( 14 - 14) =     17.93350  eV     1   --> A              
     e( 15 - 15) =     18.76912  eV     1   --> A              
     e( 16 - 16) =     19.84067  eV     1   --> A              
     e( 17 - 17) =     20.69433  eV     1   --> A              
     e( 18 - 18) =     22.79575  eV     1   --> A              
     e( 19 - 19) =     23.91720  eV     1   --> A              
     e( 20 - 20) =     24.23622  eV     1   --> A              

 **************************************************************************

 **************************************************************************

                    xk=(   0.64547,   0.00000,  -0.00025  )

     Band symmetry, C_1 (1)     point group:

     e(  1 -  1) =     -9.78209  eV     1   --> A              
     e(  2 -  2) =     -7.03736  eV     1   --> A              
     e(  3 -  3) =     -6.67832  eV     1   --> A              
     e(  4 -  4) =     -4.67565  eV     1   --> A              
     e(  5 -  5) =     -3.77598  eV     1   --> A              
     e(  6 -  6) =     -2.89000  eV     1   --> A              
     e(  7 -  7) =      4.24010  eV     1   --> A              
     e(  8 -  8) =      5.40493  eV     1   --> A              
     e(  9 -  9) =      5.87164  eV     1   --> A              
     e( 10 - 10) =      9.11716  eV     1   --> A              
     e( 11 - 11) =     16.43072  eV     1   --> A              
     e( 12 - 12) =     17.00643  eV     1   --> A              
     e( 13 - 13) =     17.17646  eV     1   --> A              
     e( 14 - 14) =     17.96398  eV     1   --> A              
     e( 15 - 15) =     18.79309  eV     1   --> A              
     e( 16 - 16) =     19.94178  eV     1   --> A              
     e( 17 - 17) =     20.68547  eV     1   --> A              
     e( 18 - 18) =     22.79913  eV     1   --> A              
     e( 19 - 19) =     23.96052  eV     1   --> A              
     e( 20 - 20) =     24.20156  eV     1   --> A              

 **************************************************************************

 **************************************************************************

                    xk=(   0.66202,   0.00000,  -0.00025  )

     Band symmetry, C_1 (1)     point group:

     e(  1 -  1) =     -9.77546  eV     1   --> A              
     e(  2 -  2) =     -6.84922  eV     1   --> A              
     e(  3 -  3) =     -6.84707  eV     1   --> A              
     e(  4 -  4) =     -4.70487  eV     1   --> A              
     e(  5 -  5) =     -3.76532  eV     1   --> A              
     e(  6 -  6) =     -2.91592  eV     1   --> A              
     e(  7 -  7) =      4.25286  eV     1   --> A              
     e(  8 -  8) =      5.61171  eV     1   --> A              
     e(  9 -  9) =      5.66397  eV     1   --> A              
     e( 10 - 10) =      9.10972  eV     1   --> A              
     e( 11 - 11) =     16.41968  eV     1   --> A              
     e( 12 - 12) =     16.98788  eV     1   --> A              
     e( 13 - 13) =     17.20893  eV     1   --> A              
     e( 14 - 14) =     17.98080  eV     1   --> A              
     e( 15 - 15) =     18.80418  eV     1   --> A              
     e( 16 - 16) =     19.98445  eV     1   --> A              
     e( 17 - 17) =     20.66964  eV     1   --> A              
     e( 18 - 18) =     22.80035  eV     1   --> A              
     e( 19 - 19) =     24.00847  eV     1   --> A              
     e( 20 - 20) =     24.16313  eV     1   --> A              

 **************************************************************************

 **************************************************************************

                    xk=(   0.65374,   0.01434,  -0.00026  )

     Band symmetry, C_1 (1)     point group:

     e(  1 -  1) =     -9.78156  eV     1   --> A              
     e(  2 -  2) =     -7.00985  eV     1   --> A              
     e(  3 -  3) =     -6.70977  eV     1   --> A              
[...]
     e(  4 -  4) =     -0.10643  eV     1   --> A              
     e(  5 -  5) =      0.73939  eV     1   --> A              
     e(  6 -  6) =      1.30130  eV     1   --> A              
     e(  7 -  7) =      1.69977  eV     1   --> A              
     e(  8 -  8) =      2.20016  eV     1   --> A              
     e(  9 -  9) =      9.92525  eV     1   --> A              
     e( 10 - 10) =     13.86612  eV     1   --> A              
     e( 11 - 11) =     13.96846  eV     1   --> A              
     e( 12 - 12) =     15.16559  eV     1   --> A              
     e( 13 - 13) =     15.74689  eV     1   --> A              
     e( 14 - 14) =     15.89430  eV     1   --> A              
     e( 15 - 15) =     17.59256  eV     1   --> A              
     e( 16 - 16) =     17.92278  eV     1   --> A              
     e( 17 - 17) =     18.41056  eV     1   --> A              
     e( 18 - 18) =     18.73311  eV     1   --> A              
     e( 19 - 19) =     23.24602  eV     1   --> A              
     e( 20 - 20) =     27.34246  eV     1   --> A              

 **************************************************************************

 **************************************************************************

                    xk=(   0.13654,   0.07883,  -0.00009  )

     Band symmetry, C_1 (1)     point group:

     e(  1 -  1) =    -13.26212  eV     1   --> A              
     e(  2 -  2) =    -13.11481  eV     1   --> A              
     e(  3 -  3) =     -1.61316  eV     1   --> A              
     e(  4 -  4) =     -0.19745  eV     1   --> A              
     e(  5 -  5) =      1.00731  eV     1   --> A              
     e(  6 -  6) =      1.53720  eV     1   --> A              
     e(  7 -  7) =      1.82509  eV     1   --> A              
     e(  8 -  8) =      2.30531  eV     1   --> A              
     e(  9 -  9) =      9.81640  eV     1   --> A              
     e( 10 - 10) =     13.88749  eV     1   --> A              
     e( 11 - 11) =     13.97932  eV     1   --> A              
     e( 12 - 12) =     15.41248  eV     1   --> A              
     e( 13 - 13) =     15.59301  eV     1   --> A              
     e( 14 - 14) =     15.78988  eV     1   --> A              
     e( 15 - 15) =     17.64585  eV     1   --> A              
     e( 16 - 16) =     17.72251  eV     1   --> A              
     e( 17 - 17) =     18.24565  eV     1   --> A              
     e( 18 - 18) =     18.55871  eV     1   --> A              
     e( 19 - 19) =     23.13017  eV     1   --> A              
     e( 20 - 20) =     27.65326  eV     1   --> A              

 **************************************************************************

 **************************************************************************

                    xk=(   0.12413,   0.07167,  -0.00008  )

     Band symmetry, C_1 (1)     point group:

     e(  1 -  1) =    -13.33447  eV     1   --> A              
     e(  2 -  2) =    -13.18170  eV     1   --> A              
     e(  3 -  3) =     -1.70399  eV     1   --> A              
     e(  4 -  4) =     -0.28090  eV     1   --> A              
     e(  5 -  5) =      1.26154  eV     1   --> A              
     e(  6 -  6) =      1.76100  eV     1   --> A              
     e(  7 -  7) =      1.94612  eV     1   --> A              
     e(  8 -  8) =      2.40616  eV     1   --> A              
     e(  9 -  9) =      9.71599  eV     1   --> A              
     e( 10 - 10) =     13.90221  eV     1   --> A              
     e( 11 - 11) =     13.98076  eV     1   --> A              
     e( 12 - 12) =     15.31048  eV     1   --> A              
     e( 13 - 13) =     15.64352  eV     1   --> A              
     e( 14 - 14) =     15.83166  eV     1   --> A              
     e( 15 - 15) =     17.38724  eV     1   --> A              
     e( 16 - 16) =     17.84794  eV     1   --> A              
     e( 17 - 17) =     18.09473  eV     1   --> A              
     e( 18 - 18) =     18.39822  eV     1   --> A              
     e( 19 - 19) =     23.01912  eV     1   --> A              
     e( 20 - 20) =     27.94535  eV     1   --> A              

 **************************************************************************

 **************************************************************************

                    xk=(   0.11172,   0.06450,  -0.00007  )

     Band symmetry, C_1 (1)     point group:

     e(  1 -  1) =    -13.40041  eV     1   --> A              
     e(  2 -  2) =    -13.24204  eV     1   --> A              
     e(  3 -  3) =     -1.78634  eV     1   --> A              
     e(  4 -  4) =     -0.35668  eV     1   --> A              
     e(  5 -  5) =      1.50023  eV     1   --> A              
     e(  6 -  6) =      1.97097  eV     1   --> A              
     e(  7 -  7) =      2.06156  eV     1   --> A              
     e(  8 -  8) =      2.50167  eV     1   --> A              
     e(  9 -  9) =      9.62417  eV     1   --> A              
     e( 10 - 10) =     13.91024  eV     1   --> A              
     e( 11 - 11) =     13.97553  eV     1   --> A              
     e( 12 - 12) =     15.04821  eV     1   --> A              
     e( 13 - 13) =     15.85599  eV     1   --> A              
     e( 14 - 14) =     15.87312  eV     1   --> A              
     e( 15 - 15) =     17.14824  eV     1   --> A              
     e( 16 - 16) =     17.89706  eV     1   --> A              
     e( 17 - 17) =     18.02703  eV     1   --> A              
     e( 18 - 18) =     18.25301  eV     1   --> A              
     e( 19 - 19) =     22.91406  eV     1   --> A              
     e( 20 - 20) =     28.21173  eV     1   --> A              

 **************************************************************************

 **************************************************************************

                    xk=(   0.09930,   0.05733,  -0.00007  )

     Band symmetry, C_1 (1)     point group:

     e(  1 -  1) =    -13.45976  eV     1   --> A              
     e(  2 -  2) =    -13.29591  eV     1   --> A              
     e(  3 -  3) =     -1.86018  eV     1   --> A              
     e(  4 -  4) =     -0.42470  eV     1   --> A              
     e(  5 -  5) =      1.72142  eV     1   --> A              
     e(  6 -  6) =      2.16539  eV     1   --> A              
     e(  7 -  7) =      2.17013  eV     1   --> A              
     e(  8 -  8) =      2.59088  eV     1   --> A              
     e(  9 -  9) =      9.54112  eV     1   --> A              
     e( 10 - 10) =     13.91201  eV     1   --> A              
     e( 11 - 11) =     13.96593  eV     1   --> A              
     e( 12 - 12) =     14.80783  eV     1   --> A              
     e( 13 - 13) =     15.90890  eV     1   --> A              
     e( 14 - 14) =     16.05348  eV     1   --> A              
     e( 15 - 15) =     16.93014  eV     1   --> A              
     e( 16 - 16) =     17.78386  eV     1   --> A              
     e( 17 - 17) =     18.11424  eV     1   --> A              
     e( 18 - 18) =     18.13635  eV     1   --> A              
     e( 19 - 19) =     22.81623  eV     1   --> A              
     e( 20 - 20) =     28.44637  eV     1   --> A              

 **************************************************************************

 **************************************************************************

                    xk=(   0.08689,   0.05017,  -0.00006  )

     Band symmetry, C_1 (1)     point group:

     e(  1 -  1) =    -13.51238  eV     1   --> A              
     e(  2 -  2) =    -13.34337  eV     1   --> A              
     e(  3 -  3) =     -1.92544  eV     1   --> A              
     e(  4 -  4) =     -0.48490  eV     1   --> A              
     e(  5 -  5) =      1.92304  eV     1   --> A              
     e(  6 -  6) =      2.27038  eV     1   --> A              
     e(  7 -  7) =      2.34242  eV     1   --> A              
     e(  8 -  8) =      2.67267  eV     1   --> A              
     e(  9 -  9) =      9.46702  eV     1   --> A              
     e( 10 - 10) =     13.90824  eV     1   --> A              
     e( 11 - 11) =     13.95382  eV     1   --> A              
     e( 12 - 12) =     14.59080  eV     1   --> A              
     e( 13 - 13) =     15.94378  eV     1   --> A              
     e( 14 - 14) =     16.22947  eV     1   --> A              
     e( 15 - 15) =     16.73410  eV     1   --> A              
     e( 16 - 16) =     17.66248  eV     1   --> A              
     e( 17 - 17) =     18.00966  eV     1   --> A              
     e( 18 - 18) =     18.23982  eV     1   --> A              
     e( 19 - 19) =     22.72670  eV     1   --> A              
     e( 20 - 20) =     28.41092  eV     1   --> A              

 **************************************************************************

 **************************************************************************

                    xk=(   0.07448,   0.04300,  -0.00005  )

     Band symmetry, C_1 (1)     point group:

     e(  1 -  1) =    -13.55815  eV     1   --> A              
     e(  2 -  2) =    -13.38448  eV     1   --> A              
     e(  3 -  3) =     -1.98209  eV     1   --> A              
     e(  4 -  4) =     -0.53725  eV     1   --> A              
     e(  5 -  5) =      2.10305  eV     1   --> A              
     e(  6 -  6) =      2.36090  eV     1   --> A              
     e(  7 -  7) =      2.50026  eV     1   --> A              
     e(  8 -  8) =      2.74603  eV     1   --> A              
     e(  9 -  9) =      9.40210  eV     1   --> A              
     e( 10 - 10) =     13.90006  eV     1   --> A              
     e( 11 - 11) =     13.94073  eV     1   --> A              
     e( 12 - 12) =     14.39871  eV     1   --> A              
     e( 13 - 13) =     15.97521  eV     1   --> A              
     e( 14 - 14) =     16.38478  eV     1   --> A              
     e( 15 - 15) =     16.56136  eV     1   --> A              
     e( 16 - 16) =     17.55215  eV     1   --> A              
     e( 17 - 17) =     17.91364  eV     1   --> A              
     e( 18 - 18) =     18.34282  eV     1   --> A              
     e( 19 - 19) =     22.64653  eV     1   --> A              
     e( 20 - 20) =     28.27581  eV     1   --> A              

 **************************************************************************

 **************************************************************************

                    xk=(   0.06206,   0.03583,  -0.00004  )

     Band symmetry, C_1 (1)     point group:

     e(  1 -  1) =    -13.59700  eV     1   --> A              
     e(  2 -  2) =    -13.41925  eV     1   --> A              
     e(  3 -  3) =     -2.03007  eV     1   --> A              
     e(  4 -  4) =     -0.58160  eV     1   --> A              
     e(  5 -  5) =      2.25958  eV     1   --> A              
     e(  6 -  6) =      2.44033  eV     1   --> A              
     e(  7 -  7) =      2.63738  eV     1   --> A              
     e(  8 -  8) =      2.81000  eV     1   --> A              
     e(  9 -  9) =      9.34658  eV     1   --> A              
     e( 10 - 10) =     13.88907  eV     1   --> A              
     e( 11 - 11) =     13.92786  eV     1   --> A              
     e( 12 - 12) =     14.23310  eV     1   --> A              
     e( 13 - 13) =     16.00281  eV     1   --> A              
     e( 14 - 14) =     16.41305  eV     1   --> A              
     e( 15 - 15) =     16.51830  eV     1   --> A              
     e( 16 - 16) =     17.45588  eV     1   --> A              
     e( 17 - 17) =     17.83388  eV     1   --> A              
     e( 18 - 18) =     18.43375  eV     1   --> A              
     e( 19 - 19) =     22.57678  eV     1   --> A              
     e( 20 - 20) =     28.15685  eV     1   --> A              

 **************************************************************************

 **************************************************************************

                    xk=(   0.04965,   0.02867,  -0.00003  )

     Band symmetry, C_1 (1)     point group:

     e(  1 -  1) =    -13.62885  eV     1   --> A              
     e(  2 -  2) =    -13.44768  eV     1   --> A              
     e(  3 -  3) =     -2.06936  eV     1   --> A              
     e(  4 -  4) =     -0.61795  eV     1   --> A              
     e(  5 -  5) =      2.39067  eV     1   --> A              
     e(  6 -  6) =      2.50741  eV     1   --> A              
     e(  7 -  7) =      2.75209  eV     1   --> A              
     e(  8 -  8) =      2.86372  eV     1   --> A              
     e(  9 -  9) =      9.30073  eV     1   --> A              
     e( 10 - 10) =     13.87681  eV     1   --> A              
     e( 11 - 11) =     13.91617  eV     1   --> A              
     e( 12 - 12) =     14.09542  eV     1   --> A              
     e( 13 - 13) =     16.02607  eV     1   --> A              
     e( 14 - 14) =     16.29019  eV     1   --> A              
     e( 15 - 15) =     16.62901  eV     1   --> A              
     e( 16 - 16) =     17.37519  eV     1   --> A              
     e( 17 - 17) =     17.77000  eV     1   --> A              
     e( 18 - 18) =     18.51043  eV     1   --> A              
     e( 19 - 19) =     22.51833  eV     1   --> A              
     e( 20 - 20) =     28.05644  eV     1   --> A              

 **************************************************************************

 **************************************************************************

                    xk=(   0.03724,   0.02150,  -0.00002  )

     Band symmetry, C_1 (1)     point group:

     e(  1 -  1) =    -13.65367  eV     1   --> A              
     e(  2 -  2) =    -13.46980  eV     1   --> A              
     e(  3 -  3) =     -2.09995  eV     1   --> A              
     e(  4 -  4) =     -0.64627  eV     1   --> A              
     e(  5 -  5) =      2.49462  eV     1   --> A              
     e(  6 -  6) =      2.56094  eV     1   --> A              
     e(  7 -  7) =      2.84293  eV     1   --> A              
     e(  8 -  8) =      2.90639  eV     1   --> A              
     e(  9 -  9) =      9.26477  eV     1   --> A              
     e( 10 - 10) =     13.86494  eV     1   --> A              
     e( 11 - 11) =     13.90640  eV     1   --> A              
     e( 12 - 12) =     13.98690  eV     1   --> A              
     e( 13 - 13) =     16.04462  eV     1   --> A              
     e( 14 - 14) =     16.19367  eV     1   --> A              
     e( 15 - 15) =     16.71610  eV     1   --> A              
     e( 16 - 16) =     17.31124  eV     1   --> A              
     e( 17 - 17) =     17.72136  eV     1   --> A              
     e( 18 - 18) =     18.57142  eV     1   --> A              
     e( 19 - 19) =     22.47198  eV     1   --> A              
     e( 20 - 20) =     27.97647  eV     1   --> A              

 **************************************************************************

 **************************************************************************

                    xk=(   0.02483,   0.01433,  -0.00002  )

     Band symmetry, C_1 (1)     point group:

     e(  1 -  1) =    -13.67141  eV     1   --> A              
     e(  2 -  2) =    -13.48559  eV     1   --> A              
     e(  3 -  3) =     -2.12181  eV     1   --> A              
     e(  4 -  4) =     -0.66652  eV     1   --> A              
     e(  5 -  5) =      2.56996  eV     1   --> A              
     e(  6 -  6) =      2.59993  eV     1   --> A              
     e(  7 -  7) =      2.90873  eV     1   --> A              
     e(  8 -  8) =      2.93736  eV     1   --> A              
     e(  9 -  9) =      9.23891  eV     1   --> A              
     e( 10 - 10) =     13.85517  eV     1   --> A              
     e( 11 - 11) =     13.89908  eV     1   --> A              
     e( 12 - 12) =     13.90856  eV     1   --> A              
     e( 13 - 13) =     16.05810  eV     1   --> A              
     e( 14 - 14) =     16.12417  eV     1   --> A              
     e( 15 - 15) =     16.77883  eV     1   --> A              
     e( 16 - 16) =     17.26491  eV     1   --> A              
     e( 17 - 17) =     17.68723  eV     1   --> A              
     e( 18 - 18) =     18.61570  eV     1   --> A              
     e( 19 - 19) =     22.43837  eV     1   --> A              
     e( 20 - 20) =     27.91836  eV     1   --> A              

 **************************************************************************

 **************************************************************************

                    xk=(   0.01241,   0.00717,  -0.00001  )

     Band symmetry, C_1 (1)     point group:

     e(  1 -  1) =    -13.68207  eV     1   --> A              
     e(  2 -  2) =    -13.49507  eV     1   --> A              
     e(  3 -  3) =     -2.13495  eV     1   --> A              
     e(  4 -  4) =     -0.67870  eV     1   --> A              
     e(  5 -  5) =      2.61557  eV     1   --> A              
     e(  6 -  6) =      2.62362  eV     1   --> A              
     e(  7 -  7) =      2.94854  eV     1   --> A              
     e(  8 -  8) =      2.95612  eV     1   --> A              
     e(  9 -  9) =      9.22332  eV     1   --> A              
     e( 10 - 10) =     13.84871  eV     1   --> A              
     e( 11 - 11) =     13.86119  eV     1   --> A              
     e( 12 - 12) =     13.89452  eV     1   --> A              
     e( 13 - 13) =     16.06626  eV     1   --> A              
     e( 14 - 14) =     16.08222  eV     1   --> A              
     e( 15 - 15) =     16.81660  eV     1   --> A              
     e( 16 - 16) =     17.23684  eV     1   --> A              
     e( 17 - 17) =     17.66702  eV     1   --> A              
     e( 18 - 18) =     18.64252  eV     1   --> A              
     e( 19 - 19) =     22.41800  eV     1   --> A              
     e( 20 - 20) =     27.88310  eV     1   --> A              

 **************************************************************************

 **************************************************************************

                    xk=(   0.00000,   0.00000,   0.00000  )

     Band symmetry, C_1 (1)     point group:

     e(  1 -  1) =    -13.68562  eV     1   --> A              
     e(  2 -  2) =    -13.49824  eV     1   --> A              
     e(  3 -  3) =     -2.13934  eV     1   --> A              
     e(  4 -  4) =     -0.68276  eV     1   --> A              
     e(  5 -  5) =      2.63082  eV     1   --> A              
     e(  6 -  6) =      2.63157  eV     1   --> A              
     e(  7 -  7) =      2.96184  eV     1   --> A              
     e(  8 -  8) =      2.96240  eV     1   --> A              
     e(  9 -  9) =      9.21811  eV     1   --> A              
     e( 10 - 10) =     13.84530  eV     1   --> A              
     e( 11 - 11) =     13.84645  eV     1   --> A              
     e( 12 - 12) =     13.89298  eV     1   --> A              
     e( 13 - 13) =     16.06815  eV     1   --> A              
     e( 14 - 14) =     16.06902  eV     1   --> A              
     e( 15 - 15) =     16.82920  eV     1   --> A              
     e( 16 - 16) =     17.22744  eV     1   --> A              
     e( 17 - 17) =     17.66032  eV     1   --> A              
     e( 18 - 18) =     18.65150  eV     1   --> A              
     e( 19 - 19) =     22.41115  eV     1   --> A              
     e( 20 - 20) =     27.87127  eV     1   --> A              

 **************************************************************************

     BANDS        :      3.30s CPU      3.44s WALL


   This run was terminated on:  19:33:52   4Jun2020            

=------------------------------------------------------------------------------=
   JOB DONE.
=------------------------------------------------------------------------------=
