
     Program PWSCF v.6.5 starts on  4Jun2020 at 19:33: 3 

     This program is part of the open-source Quantum ESPRESSO suite
     for quantum simulation of materials; please cite
         "P. Giannozzi et al., J. Phys.:Condens. Matter 21 395502 (2009);
         "P. Giannozzi et al., J. Phys.:Condens. Matter 29 465901 (2017);
          URL http://www.quantum-espresso.org", 
     in publications or presentations arising from this work. More details at
     http://www.quantum-espresso.org/quote

     Serial version
     Reading input from nscf.inp

     Current dimensions of program PWSCF are:
     Max number of different atomic species (ntypx) = 10
     Max number of k-points (npk) =  40000
     Max angular momentum in pseudopotentials (lmaxx) =  3

     Atomic positions and unit cell read from directory:
     ./Gr_BN.save/                                                                                                                                                                                                                                                   

     Program PWSCF v.6.5 starts on  4Jun2020 at 19:33: 3 

     This program is part of the open-source Quantum ESPRESSO suite
     for quantum simulation of materials; please cite
         "P. Giannozzi et al., J. Phys.:Condens. Matter 21 395502 (2009);
         "P. Giannozzi et al., J. Phys.:Condens. Matter 29 465901 (2017);
          URL http://www.quantum-espresso.org", 
     in publications or presentations arising from this work. More details at
     http://www.quantum-espresso.org/quote

     Serial version
     Reading input from nscf.inp

     Current dimensions of program PWSCF are:
     Max number of different atomic species (ntypx) = 10
     Max number of k-points (npk) =  40000
     Max angular momentum in pseudopotentials (lmaxx) =  3

     Atomic positions and unit cell read from directory:
     ./Gr_BN.save/                                                                                                                                                                                                                                                   

     Program PWSCF v.6.5 starts on  4Jun2020 at 19:33: 3 

     This program is part of the open-source Quantum ESPRESSO suite
     for quantum simulation of materials; please cite
         "P. Giannozzi et al., J. Phys.:Condens. Matter 21 395502 (2009);
         "P. Giannozzi et al., J. Phys.:Condens. Matter 29 465901 (2017);
          URL http://www.quantum-espresso.org", 
     in publications or presentations arising from this work. More details at
     http://www.quantum-espresso.org/quote

     Serial version
     Reading input from nscf.inp

     Current dimensions of program PWSCF are:
     Max number of different atomic species (ntypx) = 10
     Max number of k-points (npk) =  40000
     Max angular momentum in pseudopotentials (lmaxx) =  3

     Atomic positions and unit cell read from directory:
     ./Gr_BN.save/                                                                                                                                                                                                                                                   

     Program PWSCF v.6.5 starts on  4Jun2020 at 19:33: 3 

     This program is part of the open-source Quantum ESPRESSO suite
     for quantum simulation of materials; please cite
         "P. Giannozzi et al., J. Phys.:Condens. Matter 21 395502 (2009);
         "P. Giannozzi et al., J. Phys.:Condens. Matter 29 465901 (2017);
          URL http://www.quantum-espresso.org", 
     in publications or presentations arising from this work. More details at
     http://www.quantum-espresso.org/quote

     Serial version
     Reading input from nscf.inp

     Current dimensions of program PWSCF are:
     Max number of different atomic species (ntypx) = 10
     Max number of k-points (npk) =  40000
     Max angular momentum in pseudopotentials (lmaxx) =  3

     Atomic positions and unit cell read from directory:
     ./Gr_BN.save/                                                                                                                                                                                                                                                   

     Program PWSCF v.6.5 starts on  4Jun2020 at 19:33: 3 

     This program is part of the open-source Quantum ESPRESSO suite
     for quantum simulation of materials; please cite
         "P. Giannozzi et al., J. Phys.:Condens. Matter 21 395502 (2009);
         "P. Giannozzi et al., J. Phys.:Condens. Matter 29 465901 (2017);
          URL http://www.quantum-espresso.org", 
     in publications or presentations arising from this work. More details at
     http://www.quantum-espresso.org/quote

     Serial version
     Reading input from nscf.inp

     Current dimensions of program PWSCF are:
     Max number of different atomic species (ntypx) = 10
     Max number of k-points (npk) =  40000
     Max angular momentum in pseudopotentials (lmaxx) =  3

     Atomic positions and unit cell read from directory:
     ./Gr_BN.save/                                                                                                                                                                                                                                                   

     Program PWSCF v.6.5 starts on  4Jun2020 at 19:33: 3 

     This program is part of the open-source Quantum ESPRESSO suite
     for quantum simulation of materials; please cite
         "P. Giannozzi et al., J. Phys.:Condens. Matter 21 395502 (2009);
         "P. Giannozzi et al., J. Phys.:Condens. Matter 29 465901 (2017);
          URL http://www.quantum-espresso.org", 
     in publications or presentations arising from this work. More details at
     http://www.quantum-espresso.org/quote

     Serial version
     Reading input from nscf.inp

     Current dimensions of program PWSCF are:
     Max number of different atomic species (ntypx) = 10
     Max number of k-points (npk) =  40000
     Max angular momentum in pseudopotentials (lmaxx) =  3

     Atomic positions and unit cell read from directory:
     ./Gr_BN.save/                                                                                                                                                                                                                                                   

     Program PWSCF v.6.5 starts on  4Jun2020 at 19:33: 3 

     This program is part of the open-source Quantum ESPRESSO suite
     for quantum simulation of materials; please cite
         "P. Giannozzi et al., J. Phys.:Condens. Matter 21 395502 (2009);
         "P. Giannozzi et al., J. Phys.:Condens. Matter 29 465901 (2017);
          URL http://www.quantum-espresso.org", 
     in publications or presentations arising from this work. More details at
     http://www.quantum-espresso.org/quote

     Serial version

     Program PWSCF v.6.5 starts on  4Jun2020 at 19:33: 3 

     This program is part of the open-source Quantum ESPRESSO suite
     for quantum simulation of materials; please cite
         "P. Giannozzi et al., J. Phys.:Condens. Matter 21 395502 (2009);
         "P. Giannozzi et al., J. Phys.:Condens. Matter 29 465901 (2017);
          URL http://www.quantum-espresso.org", 
     in publications or presentations arising from this work. More details at
     http://www.quantum-espresso.org/quote

     Serial version
     Reading input from nscf.inp

     Current dimensions of program PWSCF are:
     Max number of different atomic species (ntypx) = 10
     Max number of k-points (npk) =  40000
     Max angular momentum in pseudopotentials (lmaxx) =  3

     Atomic positions and unit cell read from directory:
     ./Gr_BN.save/                                                                                                                                                                                                                                                   
     Reading input from nscf.inp

     Current dimensions of program PWSCF are:
     Max number of different atomic species (ntypx) = 10
     Max number of k-points (npk) =  40000
     Max angular momentum in pseudopotentials (lmaxx) =  3

     Atomic positions and unit cell read from directory:
     ./Gr_BN.save/                                                                                                                                                                                                                                                   

     Program PWSCF v.6.5 starts on  4Jun2020 at 19:33: 3 

     This program is part of the open-source Quantum ESPRESSO suite
     for quantum simulation of materials; please cite
         "P. Giannozzi et al., J. Phys.:Condens. Matter 21 395502 (2009);
         "P. Giannozzi et al., J. Phys.:Condens. Matter 29 465901 (2017);
          URL http://www.quantum-espresso.org", 
     in publications or presentations arising from this work. More details at
     http://www.quantum-espresso.org/quote

     Serial version
     Reading input from nscf.inp

     Current dimensions of program PWSCF are:
     Max number of different atomic species (ntypx) = 10
     Max number of k-points (npk) =  40000
     Max angular momentum in pseudopotentials (lmaxx) =  3

     Atomic positions and unit cell read from directory:
     ./Gr_BN.save/                                                                                                                                                                                                                                                   

     Program PWSCF v.6.5 starts on  4Jun2020 at 19:33: 3 

     This program is part of the open-source Quantum ESPRESSO suite
     for quantum simulation of materials; please cite
         "P. Giannozzi et al., J. Phys.:Condens. Matter 21 395502 (2009);
         "P. Giannozzi et al., J. Phys.:Condens. Matter 29 465901 (2017);
          URL http://www.quantum-espresso.org", 
     in publications or presentations arising from this work. More details at
     http://www.quantum-espresso.org/quote

     Serial version
     Reading input from nscf.inp

     Current dimensions of program PWSCF are:
     Max number of different atomic species (ntypx) = 10
     Max number of k-points (npk) =  40000
     Max angular momentum in pseudopotentials (lmaxx) =  3

     Atomic positions and unit cell read from directory:
     ./Gr_BN.save/                                                                                                                                                                                                                                                   









     Message from routine read_upf::
     Message from routine read_upf::
     Pseudo file C.pbe-n-kjpaw_psl.0.1.UPF has been fixed on the fly.
To avoid this message in the future, permanently fix 
 your pseudo files following these instructions: 
https://gitlab.com/QEF/q-e/blob/master/upftools/how_to_fix_upf.md
     Pseudo file C.pbe-n-kjpaw_psl.0.1.UPF has been fixed on the fly.
To avoid this message in the future, permanently fix 
 your pseudo files following these instructions: 
https://gitlab.com/QEF/q-e/blob/master/upftools/how_to_fix_upf.md
     Message from routine read_upf::
     Message from routine read_upf::
     Pseudo file C.pbe-n-kjpaw_psl.0.1.UPF has been fixed on the fly.
To avoid this message in the future, permanently fix 
 your pseudo files following these instructions: 
https://gitlab.com/QEF/q-e/blob/master/upftools/how_to_fix_upf.md
     Pseudo file C.pbe-n-kjpaw_psl.0.1.UPF has been fixed on the fly.
To avoid this message in the future, permanently fix 
 your pseudo files following these instructions: 
https://gitlab.com/QEF/q-e/blob/master/upftools/how_to_fix_upf.md

 %%%%%%%%%%%%%%%%%%%%%%%%%%%%%%%%%%%%%%%%%%%%%%%%%%%%%%%%%%%%%%%%%%%%%%%%%%%%%%
     Error in routine readpp (1):
     file ./Gr_BN.save/C.pbe-n-kjpaw_psl.0.1.UPF not readable
 %%%%%%%%%%%%%%%%%%%%%%%%%%%%%%%%%%%%%%%%%%%%%%%%%%%%%%%%%%%%%%%%%%%%%%%%%%%%%%

     stopping ...

 %%%%%%%%%%%%%%%%%%%%%%%%%%%%%%%%%%%%%%%%%%%%%%%%%%%%%%%%%%%%%%%%%%%%%%%%%%%%%%
     Error in routine readpp (1):
     file ./Gr_BN.save/C.pbe-n-kjpaw_psl.0.1.UPF not readable
 %%%%%%%%%%%%%%%%%%%%%%%%%%%%%%%%%%%%%%%%%%%%%%%%%%%%%%%%%%%%%%%%%%%%%%%%%%%%%%

     stopping ...

 %%%%%%%%%%%%%%%%%%%%%%%%%%%%%%%%%%%%%%%%%%%%%%%%%%%%%%%%%%%%%%%%%%%%%%%%%%%%%%
     Error in routine readpp (1):
     file ./Gr_BN.save/C.pbe-n-kjpaw_psl.0.1.UPF not readable
 %%%%%%%%%%%%%%%%%%%%%%%%%%%%%%%%%%%%%%%%%%%%%%%%%%%%%%%%%%%%%%%%%%%%%%%%%%%%%%

     stopping ...

 %%%%%%%%%%%%%%%%%%%%%%%%%%%%%%%%%%%%%%%%%%%%%%%%%%%%%%%%%%%%%%%%%%%%%%%%%%%%%%
     Error in routine readpp (1):
     file ./Gr_BN.save/C.pbe-n-kjpaw_psl.0.1.UPF not readable
 %%%%%%%%%%%%%%%%%%%%%%%%%%%%%%%%%%%%%%%%%%%%%%%%%%%%%%%%%%%%%%%%%%%%%%%%%%%%%%

     stopping ...

     Message from routine read_upf::
     Pseudo file C.pbe-n-kjpaw_psl.0.1.UPF has been fixed on the fly.
To avoid this message in the future, permanently fix 
 your pseudo files following these instructions: 
https://gitlab.com/QEF/q-e/blob/master/upftools/how_to_fix_upf.md
     Message from routine read_upf::
     Pseudo file C.pbe-n-kjpaw_psl.0.1.UPF has been fixed on the fly.
To avoid this message in the future, permanently fix 
 your pseudo files following these instructions: 
https://gitlab.com/QEF/q-e/blob/master/upftools/how_to_fix_upf.md
     Message from routine read_upf::
     Pseudo file C.pbe-n-kjpaw_psl.0.1.UPF has been fixed on the fly.
To avoid this message in the future, permanently fix 
 your pseudo files following these instructions: 
https://gitlab.com/QEF/q-e/blob/master/upftools/how_to_fix_upf.md
     Message from routine read_upf::
     Pseudo file C.pbe-n-kjpaw_psl.0.1.UPF has been fixed on the fly.
To avoid this message in the future, permanently fix 
 your pseudo files following these instructions: 
https://gitlab.com/QEF/q-e/blob/master/upftools/how_to_fix_upf.md
     Message from routine read_upf::
     Pseudo file B.pbe-n-kjpaw_psl.0.1.UPF has been fixed on the fly.
To avoid this message in the future, permanently fix 
 your pseudo files following these instructions: 
https://gitlab.com/QEF/q-e/blob/master/upftools/how_to_fix_upf.md

 %%%%%%%%%%%%%%%%%%%%%%%%%%%%%%%%%%%%%%%%%%%%%%%%%%%%%%%%%%%%%%%%%%%%%%%%%%%%%%
     Error in routine readpp (1):
     file ./Gr_BN.save/B.pbe-n-kjpaw_psl.0.1.UPF not readable
 %%%%%%%%%%%%%%%%%%%%%%%%%%%%%%%%%%%%%%%%%%%%%%%%%%%%%%%%%%%%%%%%%%%%%%%%%%%%%%

     stopping ...

 %%%%%%%%%%%%%%%%%%%%%%%%%%%%%%%%%%%%%%%%%%%%%%%%%%%%%%%%%%%%%%%%%%%%%%%%%%%%%%
     Error in routine upf_module:read_upf (2):
     error while opening file ./B.pbe-n-kjpaw_psl.0.1.UPF_
 %%%%%%%%%%%%%%%%%%%%%%%%%%%%%%%%%%%%%%%%%%%%%%%%%%%%%%%%%%%%%%%%%%%%%%%%%%%%%%

     stopping ...

 %%%%%%%%%%%%%%%%%%%%%%%%%%%%%%%%%%%%%%%%%%%%%%%%%%%%%%%%%%%%%%%%%%%%%%%%%%%%%%
     Error in routine upf_module:read_upf (2):
     error while opening file ./B.pbe-n-kjpaw_psl.0.1.UPF_
 %%%%%%%%%%%%%%%%%%%%%%%%%%%%%%%%%%%%%%%%%%%%%%%%%%%%%%%%%%%%%%%%%%%%%%%%%%%%%%

     stopping ...
     Message from routine read_upf::
     Pseudo file C.pbe-n-kjpaw_psl.0.1.UPF has been fixed on the fly.
To avoid this message in the future, permanently fix 
 your pseudo files following these instructions: 
https://gitlab.com/QEF/q-e/blob/master/upftools/how_to_fix_upf.md
     Message from routine read_upf::
     Pseudo file B.pbe-n-kjpaw_psl.0.1.UPF has been fixed on the fly.
To avoid this message in the future, permanently fix 
 your pseudo files following these instructions: 
https://gitlab.com/QEF/q-e/blob/master/upftools/how_to_fix_upf.md
     Message from routine read_upf::
     Pseudo file B.pbe-n-kjpaw_psl.0.1.UPF has been fixed on the fly.
To avoid this message in the future, permanently fix 
 your pseudo files following these instructions: 
https://gitlab.com/QEF/q-e/blob/master/upftools/how_to_fix_upf.md
     Message from routine read_upf::
     Pseudo file N.pbe-n-kjpaw_psl.0.1.UPF has been fixed on the fly.
To avoid this message in the future, permanently fix 
 your pseudo files following these instructions: 
https://gitlab.com/QEF/q-e/blob/master/upftools/how_to_fix_upf.md
               file C.pbe-n-kjpaw_psl.0.1.UPF: wavefunction(s)  2P renormalized
               file B.pbe-n-kjpaw_psl.0.1.UPF: wavefunction(s)  2P renormalized
               file N.pbe-n-kjpaw_psl.0.1.UPF: wavefunction(s)  2P renormalized
     Message from routine read_upf::
     Pseudo file N.pbe-n-kjpaw_psl.0.1.UPF has been fixed on the fly.
To avoid this message in the future, permanently fix 
 your pseudo files following these instructions: 
https://gitlab.com/QEF/q-e/blob/master/upftools/how_to_fix_upf.md

     --------------------------------------------
     Parameters for DFT-D3 Dispersion Correction:
     --------------------------------------------
       Reference C6 values for interpolation: 

         atom   Coordination number   C6
         B          0.000           214.36
         B          0.971           150.74
         B          1.944           106.23
         B          2.913            62.89
         B          4.586            56.06
         C          0.000            98.23
         C          0.987            86.49
         C          1.998            58.72
         C          2.999            51.56
         C          3.984            36.41
         N          0.000            50.54
         N          0.994            44.25
         N          2.014            39.35
         N          2.990            31.16

       Values used:

         atom   Coordination number  R0_AB[au]  C6      C8
         B          3.382            3.039     62.86   2504.67
         N          3.158            2.478     31.21    688.49
         C          3.288            2.750     48.79   1411.00
         C          3.288            2.750     48.78   1410.94

         Molecular C6 ( Ry / a.u.^6 ) =       752.00

               file C.pbe-n-kjpaw_psl.0.1.UPF: wavefunction(s)  2P renormalized
               file B.pbe-n-kjpaw_psl.0.1.UPF: wavefunction(s)  2P renormalized
               file N.pbe-n-kjpaw_psl.0.1.UPF: wavefunction(s)  2P renormalized

     --------------------------------------------
     Parameters for DFT-D3 Dispersion Correction:
     --------------------------------------------
       Reference C6 values for interpolation: 

         atom   Coordination number   C6
         B          0.000           214.36
         B          0.971           150.74
         B          1.944           106.23
         B          2.913            62.89
         B          4.586            56.06
         C          0.000            98.23
         C          0.987            86.49
         C          1.998            58.72
         C          2.999            51.56
         C          3.984            36.41
         N          0.000            50.54
         N          0.994            44.25
         N          2.014            39.35
         N          2.990            31.16

       Values used:

         atom   Coordination number  R0_AB[au]  C6      C8
         B          3.382            3.039     62.86   2504.67
         N          3.158            2.478     31.21    688.49
         C          3.288            2.750     48.79   1411.00
         C          3.288            2.750     48.78   1410.94

         Molecular C6 ( Ry / a.u.^6 ) =       752.00


     G-vector sticks info
     --------------------
     sticks:   dense  smooth     PW     G-vecs:    dense   smooth      PW
     Sum         313     313     97                13363    13363    2315


     Title: 
     Unstrained graphene optimization. 2 atoms fragment. BANDS                  


     bravais-lattice index     =            0
     lattice parameter (alat)  =       4.6638  a.u.
     unit-cell volume          =     263.2433 (a.u.)^3
     number of atoms/cell      =            4
     number of atomic types    =            3
     number of electrons       =        16.00
     number of Kohn-Sham states=           20
     kinetic-energy cutoff     =      52.0000  Ry
     charge density cutoff     =     208.0000  Ry
     Exchange-correlation= SLA PW PBX PBC
                           (   1   4   3   4   0   0   0)

     celldm(1)=   4.663844  celldm(2)=   0.000000  celldm(3)=   0.000000
     celldm(4)=   0.000000  celldm(5)=   0.000000  celldm(6)=   0.000000

     crystal axes: (cart. coord. in units of alat)
               a(1) = (   1.007020  -0.000003   0.000449 )  
               a(2) = (  -0.503513   0.872109   0.000267 )  
               a(3) = (   0.001128   0.001431   2.954726 )  

     reciprocal axes: (cart. coord. in units 2 pi/alat)
               b(1) = (  0.993030  0.573327 -0.000657 )  
               b(2) = (  0.000004  1.146648 -0.000555 )  
               b(3) = ( -0.000151 -0.000191  0.338441 )  


     PseudoPot. # 1 for C  read from file:
     ./C.pbe-n-kjpaw_psl.0.1.UPF
     MD5 check sum: 430fe95172b1e11ef3f8ed03bac87931
     Pseudo is Projector augmented-wave + core cor, Zval =  4.0
     Generated using "atomic" code by A. Dal Corso v.5.0.99 svn rev. 10869
     Shape of augmentation charge: BESSEL
     Using radial grid of 1073 points,  4 beta functions with: 
                l(1) =   0
                l(2) =   0
                l(3) =   1
                l(4) =   1
     Q(r) pseudized with 0 coefficients 


     PseudoPot. # 2 for B  read from file:
     ./B.pbe-n-kjpaw_psl.0.1.UPF
     MD5 check sum: b4345a612e0782cca08559f453f3313f
     Pseudo is Projector augmented-wave + core cor, Zval =  3.0
     Generated using "atomic" code by A. Dal Corso v.5.0.99 svn rev. 10869
     Shape of augmentation charge: BESSEL
     Using radial grid of 1059 points,  4 beta functions with: 
                l(1) =   0
                l(2) =   0
                l(3) =   1
                l(4) =   1
     Q(r) pseudized with 0 coefficients 


     PseudoPot. # 3 for N  read from file:
     ./N.pbe-n-kjpaw_psl.0.1.UPF
     MD5 check sum: f73187c8b701007e77325f868c9291d7
     Pseudo is Projector augmented-wave + core cor, Zval =  5.0
     Generated using "atomic" code by A. Dal Corso v.5.0.99 svn rev. 10869
     Shape of augmentation charge: PSQ
     Using radial grid of 1085 points,  4 beta functions with: 
                l(1) =   0
                l(2) =   0
                l(3) =   1
                l(4) =   1
     Q(r) pseudized with 0 coefficients 


     atomic species   valence    mass     pseudopotential
        C              4.00    12.01100     C ( 1.00)
        B              3.00    10.81700     B ( 1.00)
        N              5.00    14.00700     N ( 1.00)

     No symmetry found


                                    s                        frac. trans.

      isym =  1     identity                                     

 cryst.   s( 1) = (     1          0          0      )
                  (     0          1          0      )
                  (     0          0          1      )

 cart.    s( 1) = (  1.0000000 -0.0000000 -0.0000000 )
                  (  0.0000000  1.0000000 -0.0000000 )
                  (  0.0000000  0.0000000  1.0000000 )


   Cartesian axes

     site n.     atom                  positions (alat units)
         1           B   tau(   1) = (   0.0055800   0.5846645   1.2634664  )
         2           N   tau(   2) = (   0.5091014   0.2939623   1.2636912  )
         3           C   tau(   3) = (   0.0080931   0.0051005   2.7536644  )
         4           C   tau(   4) = (   0.0080988   0.5865134   2.7540945  )

   Crystallographic axes

     site n.     atom                  positions (cryst. coord.)
         1           B   tau(   1) = (  0.3399155  0.6697031  0.4274965  )
         2           N   tau(   2) = (  0.6732599  0.3363716  0.4275521  )
         3           C   tau(   3) = (  0.0091529  0.0043198  0.9319507  )
         4           C   tau(   4) = (  0.3424981  0.6709956  0.9319855  )

     number of k points=   101  Methfessel-Paxton smearing, width (Ry)=  0.0200
                       cart. coord. in units 2pi/alat
        k(    1) = (   0.0000000   0.0000000   0.0000000), wk =   0.0198020
        k(    2) = (   0.0165505   0.0000001  -0.0000063), wk =   0.0198020
        k(    3) = (   0.0331010   0.0000001  -0.0000126), wk =   0.0198020
        k(    4) = (   0.0496514   0.0000002  -0.0000190), wk =   0.0198020
        k(    5) = (   0.0662019   0.0000002  -0.0000253), wk =   0.0198020
        k(    6) = (   0.0827524   0.0000003  -0.0000316), wk =   0.0198020
        k(    7) = (   0.0993029   0.0000003  -0.0000379), wk =   0.0198020
        k(    8) = (   0.1158533   0.0000004  -0.0000442), wk =   0.0198020
        k(    9) = (   0.1324038   0.0000004  -0.0000505), wk =   0.0198020
        k(   10) = (   0.1489543   0.0000005  -0.0000569), wk =   0.0198020
        k(   11) = (   0.1655048   0.0000005  -0.0000632), wk =   0.0198020
        k(   12) = (   0.1820553   0.0000006  -0.0000695), wk =   0.0198020
        k(   13) = (   0.1986057   0.0000006  -0.0000758), wk =   0.0198020
        k(   14) = (   0.2151562   0.0000007  -0.0000821), wk =   0.0198020
        k(   15) = (   0.2317067   0.0000007  -0.0000884), wk =   0.0198020
        k(   16) = (   0.2482572   0.0000008  -0.0000948), wk =   0.0198020
        k(   17) = (   0.2648076   0.0000008  -0.0001011), wk =   0.0198020
        k(   18) = (   0.2813581   0.0000009  -0.0001074), wk =   0.0198020
        k(   19) = (   0.2979086   0.0000009  -0.0001137), wk =   0.0198020
        k(   20) = (   0.3144591   0.0000010  -0.0001200), wk =   0.0198020
        k(   21) = (   0.3310096   0.0000010  -0.0001263), wk =   0.0198020
        k(   22) = (   0.3475600   0.0000011  -0.0001327), wk =   0.0198020
        k(   23) = (   0.3641105   0.0000011  -0.0001390), wk =   0.0198020
        k(   24) = (   0.3806610   0.0000012  -0.0001453), wk =   0.0198020
        k(   25) = (   0.3972115   0.0000012  -0.0001516), wk =   0.0198020
        k(   26) = (   0.4137619   0.0000013  -0.0001579), wk =   0.0198020
        k(   27) = (   0.4303124   0.0000013  -0.0001643), wk =   0.0198020
        k(   28) = (   0.4468629   0.0000014  -0.0001706), wk =   0.0198020
        k(   29) = (   0.4634134   0.0000014  -0.0001769), wk =   0.0198020
        k(   30) = (   0.4799639   0.0000015  -0.0001832), wk =   0.0198020
        k(   31) = (   0.4965143   0.0000015  -0.0001895), wk =   0.0198020
        k(   32) = (   0.5130648   0.0000016  -0.0001958), wk =   0.0198020
        k(   33) = (   0.5296153   0.0000016  -0.0002022), wk =   0.0198020
        k(   34) = (   0.5461658   0.0000017  -0.0002085), wk =   0.0198020
        k(   35) = (   0.5627162   0.0000017  -0.0002148), wk =   0.0198020
        k(   36) = (   0.5792667   0.0000018  -0.0002211), wk =   0.0198020
        k(   37) = (   0.5958172   0.0000018  -0.0002274), wk =   0.0198020
        k(   38) = (   0.6123677   0.0000019  -0.0002337), wk =   0.0198020
        k(   39) = (   0.6289182   0.0000019  -0.0002401), wk =   0.0198020
        k(   40) = (   0.6454686   0.0000020  -0.0002464), wk =   0.0198020
        k(   41) = (   0.6620191   0.0000020  -0.0002527), wk =   0.0198020
        k(   42) = (   0.6537439   0.0143351  -0.0002565), wk =   0.0198020
        k(   43) = (   0.6454687   0.0286682  -0.0002603), wk =   0.0198020
        k(   44) = (   0.6371935   0.0430013  -0.0002640), wk =   0.0198020
        k(   45) = (   0.6289183   0.0573343  -0.0002678), wk =   0.0198020
        k(   46) = (   0.6206431   0.0716674  -0.0002716), wk =   0.0198020
        k(   47) = (   0.6123679   0.0860005  -0.0002754), wk =   0.0198020
        k(   48) = (   0.6040927   0.1003336  -0.0002792), wk =   0.0198020
        k(   49) = (   0.5958175   0.1146666  -0.0002829), wk =   0.0198020
        k(   50) = (   0.5875424   0.1289997  -0.0002867), wk =   0.0198020
        k(   51) = (   0.5792672   0.1433328  -0.0002905), wk =   0.0198020
        k(   52) = (   0.5709920   0.1576659  -0.0002943), wk =   0.0198020
        k(   53) = (   0.5627168   0.1719989  -0.0002981), wk =   0.0198020
        k(   54) = (   0.5544416   0.1863320  -0.0003018), wk =   0.0198020
        k(   55) = (   0.5461664   0.2006651  -0.0003056), wk =   0.0198020
        k(   56) = (   0.5378912   0.2149982  -0.0003094), wk =   0.0198020
        k(   57) = (   0.5296160   0.2293313  -0.0003132), wk =   0.0198020
        k(   58) = (   0.5213408   0.2436643  -0.0003170), wk =   0.0198020
        k(   59) = (   0.5130656   0.2579974  -0.0003207), wk =   0.0198020
        k(   60) = (   0.5047904   0.2723305  -0.0003245), wk =   0.0198020
        k(   61) = (   0.4965152   0.2866636  -0.0003283), wk =   0.0198020
        k(   62) = (   0.4841023   0.2794970  -0.0003201), wk =   0.0198020
        k(   63) = (   0.4716895   0.2723304  -0.0003119), wk =   0.0198020
        k(   64) = (   0.4592766   0.2651638  -0.0003037), wk =   0.0198020
        k(   65) = (   0.4468637   0.2579972  -0.0002955), wk =   0.0198020
        k(   66) = (   0.4344508   0.2508306  -0.0002873), wk =   0.0198020
        k(   67) = (   0.4220379   0.2436640  -0.0002791), wk =   0.0198020
        k(   68) = (   0.4096251   0.2364974  -0.0002709), wk =   0.0198020
        k(   69) = (   0.3972122   0.2293309  -0.0002626), wk =   0.0198020
        k(   70) = (   0.3847993   0.2221643  -0.0002544), wk =   0.0198020
        k(   71) = (   0.3723864   0.2149977  -0.0002462), wk =   0.0198020
        k(   72) = (   0.3599735   0.2078311  -0.0002380), wk =   0.0198020
        k(   73) = (   0.3475607   0.2006645  -0.0002298), wk =   0.0198020
        k(   74) = (   0.3351478   0.1934979  -0.0002216), wk =   0.0198020
        k(   75) = (   0.3227349   0.1863313  -0.0002134), wk =   0.0198020
        k(   76) = (   0.3103220   0.1791647  -0.0002052), wk =   0.0198020
        k(   77) = (   0.2979091   0.1719981  -0.0001970), wk =   0.0198020
        k(   78) = (   0.2854962   0.1648315  -0.0001888), wk =   0.0198020
        k(   79) = (   0.2730834   0.1576650  -0.0001806), wk =   0.0198020
        k(   80) = (   0.2606705   0.1504984  -0.0001724), wk =   0.0198020
        k(   81) = (   0.2482576   0.1433318  -0.0001642), wk =   0.0198020
        k(   82) = (   0.2358447   0.1361652  -0.0001559), wk =   0.0198020
        k(   83) = (   0.2234318   0.1289986  -0.0001477), wk =   0.0198020
        k(   84) = (   0.2110190   0.1218320  -0.0001395), wk =   0.0198020
        k(   85) = (   0.1986061   0.1146654  -0.0001313), wk =   0.0198020
        k(   86) = (   0.1861932   0.1074988  -0.0001231), wk =   0.0198020
        k(   87) = (   0.1737803   0.1003322  -0.0001149), wk =   0.0198020
        k(   88) = (   0.1613674   0.0931657  -0.0001067), wk =   0.0198020
        k(   89) = (   0.1489546   0.0859991  -0.0000985), wk =   0.0198020
        k(   90) = (   0.1365417   0.0788325  -0.0000903), wk =   0.0198020
        k(   91) = (   0.1241288   0.0716659  -0.0000821), wk =   0.0198020
        k(   92) = (   0.1117159   0.0644993  -0.0000739), wk =   0.0198020
        k(   93) = (   0.0993030   0.0573327  -0.0000657), wk =   0.0198020
        k(   94) = (   0.0868902   0.0501661  -0.0000575), wk =   0.0198020
        k(   95) = (   0.0744773   0.0429995  -0.0000492), wk =   0.0198020
        k(   96) = (   0.0620644   0.0358329  -0.0000410), wk =   0.0198020
        k(   97) = (   0.0496515   0.0286664  -0.0000328), wk =   0.0198020
        k(   98) = (   0.0372386   0.0214998  -0.0000246), wk =   0.0198020
        k(   99) = (   0.0248258   0.0143332  -0.0000164), wk =   0.0198020
        k(  100) = (   0.0124129   0.0071666  -0.0000082), wk =   0.0198020
        k(  101) = (   0.0000000   0.0000000   0.0000000), wk =   0.0198020

                       cryst. coord.
        k(    1) = (   0.0000000   0.0000000   0.0000000), wk =   0.0198020
        k(    2) = (   0.0166667  -0.0083333  -0.0000000), wk =   0.0198020
        k(    3) = (   0.0333333  -0.0166667  -0.0000000), wk =   0.0198020
        k(    4) = (   0.0500000  -0.0250000  -0.0000000), wk =   0.0198020
        k(    5) = (   0.0666667  -0.0333333  -0.0000000), wk =   0.0198020
        k(    6) = (   0.0833333  -0.0416667   0.0000000), wk =   0.0198020
        k(    7) = (   0.1000000  -0.0500000  -0.0000000), wk =   0.0198020
        k(    8) = (   0.1166667  -0.0583333  -0.0000000), wk =   0.0198020
        k(    9) = (   0.1333333  -0.0666667  -0.0000000), wk =   0.0198020
        k(   10) = (   0.1500000  -0.0750000  -0.0000000), wk =   0.0198020
        k(   11) = (   0.1666667  -0.0833333   0.0000000), wk =   0.0198020
        k(   12) = (   0.1833333  -0.0916667  -0.0000000), wk =   0.0198020
        k(   13) = (   0.2000000  -0.1000000  -0.0000000), wk =   0.0198020
        k(   14) = (   0.2166667  -0.1083333   0.0000000), wk =   0.0198020
        k(   15) = (   0.2333333  -0.1166667  -0.0000000), wk =   0.0198020
        k(   16) = (   0.2500000  -0.1250000   0.0000000), wk =   0.0198020
        k(   17) = (   0.2666667  -0.1333333  -0.0000000), wk =   0.0198020
        k(   18) = (   0.2833333  -0.1416667  -0.0000000), wk =   0.0198020
        k(   19) = (   0.3000000  -0.1500000  -0.0000000), wk =   0.0198020
        k(   20) = (   0.3166667  -0.1583333  -0.0000000), wk =   0.0198020
        k(   21) = (   0.3333333  -0.1666667   0.0000000), wk =   0.0198020
        k(   22) = (   0.3500000  -0.1750000  -0.0000000), wk =   0.0198020
        k(   23) = (   0.3666667  -0.1833333  -0.0000000), wk =   0.0198020
        k(   24) = (   0.3833333  -0.1916667  -0.0000000), wk =   0.0198020
        k(   25) = (   0.4000000  -0.2000000  -0.0000000), wk =   0.0198020
        k(   26) = (   0.4166667  -0.2083333  -0.0000000), wk =   0.0198020
        k(   27) = (   0.4333333  -0.2166667   0.0000000), wk =   0.0198020
        k(   28) = (   0.4500000  -0.2250000  -0.0000000), wk =   0.0198020
        k(   29) = (   0.4666667  -0.2333333  -0.0000000), wk =   0.0198020
        k(   30) = (   0.4833333  -0.2416667   0.0000000), wk =   0.0198020
        k(   31) = (   0.5000000  -0.2500000   0.0000000), wk =   0.0198020
        k(   32) = (   0.5166667  -0.2583333  -0.0000000), wk =   0.0198020
        k(   33) = (   0.5333333  -0.2666667  -0.0000000), wk =   0.0198020
        k(   34) = (   0.5500000  -0.2750000   0.0000000), wk =   0.0198020
        k(   35) = (   0.5666667  -0.2833333  -0.0000000), wk =   0.0198020
        k(   36) = (   0.5833333  -0.2916667  -0.0000000), wk =   0.0198020
        k(   37) = (   0.6000000  -0.3000000  -0.0000000), wk =   0.0198020
        k(   38) = (   0.6166667  -0.3083333   0.0000000), wk =   0.0198020
        k(   39) = (   0.6333333  -0.3166667  -0.0000000), wk =   0.0198020
        k(   40) = (   0.6500000  -0.3250000  -0.0000000), wk =   0.0198020
        k(   41) = (   0.6666667  -0.3333333   0.0000000), wk =   0.0198020
        k(   42) = (   0.6583333  -0.3166667  -0.0000000), wk =   0.0198020
        k(   43) = (   0.6500000  -0.3000000  -0.0000000), wk =   0.0198020
        k(   44) = (   0.6416667  -0.2833333  -0.0000000), wk =   0.0198020
        k(   45) = (   0.6333333  -0.2666667   0.0000000), wk =   0.0198020
        k(   46) = (   0.6250000  -0.2500000  -0.0000000), wk =   0.0198020
        k(   47) = (   0.6166667  -0.2333333  -0.0000000), wk =   0.0198020
        k(   48) = (   0.6083333  -0.2166667   0.0000000), wk =   0.0198020
        k(   49) = (   0.6000000  -0.2000000   0.0000000), wk =   0.0198020
        k(   50) = (   0.5916667  -0.1833333  -0.0000000), wk =   0.0198020
        k(   51) = (   0.5833333  -0.1666667  -0.0000000), wk =   0.0198020
        k(   52) = (   0.5750000  -0.1500000   0.0000000), wk =   0.0198020
        k(   53) = (   0.5666667  -0.1333333  -0.0000000), wk =   0.0198020
        k(   54) = (   0.5583333  -0.1166667   0.0000000), wk =   0.0198020
        k(   55) = (   0.5500000  -0.1000000  -0.0000000), wk =   0.0198020
        k(   56) = (   0.5416667  -0.0833333  -0.0000000), wk =   0.0198020
        k(   57) = (   0.5333333  -0.0666667  -0.0000000), wk =   0.0198020
        k(   58) = (   0.5250000  -0.0500000  -0.0000000), wk =   0.0198020
        k(   59) = (   0.5166667  -0.0333333  -0.0000000), wk =   0.0198020
        k(   60) = (   0.5083333  -0.0166667  -0.0000000), wk =   0.0198020
        k(   61) = (   0.5000000  -0.0000000  -0.0000000), wk =   0.0198020
        k(   62) = (   0.4875000  -0.0000000  -0.0000000), wk =   0.0198020
        k(   63) = (   0.4750000   0.0000000  -0.0000000), wk =   0.0198020
        k(   64) = (   0.4625000  -0.0000000  -0.0000000), wk =   0.0198020
        k(   65) = (   0.4500000   0.0000000  -0.0000000), wk =   0.0198020
        k(   66) = (   0.4375000   0.0000000   0.0000000), wk =   0.0198020
        k(   67) = (   0.4250000   0.0000000  -0.0000000), wk =   0.0198020
        k(   68) = (   0.4125000   0.0000000  -0.0000000), wk =   0.0198020
        k(   69) = (   0.4000000  -0.0000000  -0.0000000), wk =   0.0198020
        k(   70) = (   0.3875000  -0.0000000   0.0000000), wk =   0.0198020
        k(   71) = (   0.3750000   0.0000000  -0.0000000), wk =   0.0198020
        k(   72) = (   0.3625000   0.0000000  -0.0000000), wk =   0.0198020
        k(   73) = (   0.3500000   0.0000000  -0.0000000), wk =   0.0198020
        k(   74) = (   0.3375000   0.0000000  -0.0000000), wk =   0.0198020
        k(   75) = (   0.3250000  -0.0000000  -0.0000000), wk =   0.0198020
        k(   76) = (   0.3125000  -0.0000000  -0.0000000), wk =   0.0198020
        k(   77) = (   0.3000000  -0.0000000  -0.0000000), wk =   0.0198020
        k(   78) = (   0.2875000   0.0000000  -0.0000000), wk =   0.0198020
        k(   79) = (   0.2750000   0.0000000  -0.0000000), wk =   0.0198020
        k(   80) = (   0.2625000  -0.0000000   0.0000000), wk =   0.0198020
        k(   81) = (   0.2500000  -0.0000000  -0.0000000), wk =   0.0198020
        k(   82) = (   0.2375000   0.0000000  -0.0000000), wk =   0.0198020
        k(   83) = (   0.2250000  -0.0000000  -0.0000000), wk =   0.0198020
        k(   84) = (   0.2125000   0.0000000  -0.0000000), wk =   0.0198020
        k(   85) = (   0.2000000  -0.0000000  -0.0000000), wk =   0.0198020
        k(   86) = (   0.1875000   0.0000000  -0.0000000), wk =   0.0198020
        k(   87) = (   0.1750000   0.0000000  -0.0000000), wk =   0.0198020
        k(   88) = (   0.1625000  -0.0000000  -0.0000000), wk =   0.0198020
        k(   89) = (   0.1500000  -0.0000000  -0.0000000), wk =   0.0198020
        k(   90) = (   0.1375000  -0.0000000   0.0000000), wk =   0.0198020
        k(   91) = (   0.1250000  -0.0000000  -0.0000000), wk =   0.0198020
        k(   92) = (   0.1125000  -0.0000000  -0.0000000), wk =   0.0198020
        k(   93) = (   0.1000000  -0.0000000  -0.0000000), wk =   0.0198020
        k(   94) = (   0.0875000   0.0000000  -0.0000000), wk =   0.0198020
        k(   95) = (   0.0750000  -0.0000000  -0.0000000), wk =   0.0198020
        k(   96) = (   0.0625000  -0.0000000  -0.0000000), wk =   0.0198020
        k(   97) = (   0.0500000  -0.0000000  -0.0000000), wk =   0.0198020
        k(   98) = (   0.0375000  -0.0000000  -0.0000000), wk =   0.0198020
        k(   99) = (   0.0250000  -0.0000000   0.0000000), wk =   0.0198020
        k(  100) = (   0.0125000   0.0000000   0.0000000), wk =   0.0198020
        k(  101) = (   0.0000000   0.0000000   0.0000000), wk =   0.0198020

     Dense  grid:    13363 G-vectors     FFT dimensions: (  24,  24,  64)

     Dynamical RAM for                 wfc:       0.51 MB

     Dynamical RAM for     wfc (w. buffer):       0.51 MB

     Dynamical RAM for           str. fact:       0.61 MB

     Dynamical RAM for           local pot:       0.00 MB

     Dynamical RAM for          nlocal pot:       0.81 MB

     Dynamical RAM for                qrad:       0.74 MB

     Dynamical RAM for          rho,v,vnew:       1.46 MB

     Dynamical RAM for           G-vectors:       0.87 MB

     Dynamical RAM for          h,s,v(r/c):       0.29 MB

     Dynamical RAM for          <psi|beta>:       0.01 MB

     Dynamical RAM for                 psi:       2.03 MB

     Dynamical RAM for                hpsi:       2.03 MB

     Dynamical RAM for                spsi:       2.03 MB

     Dynamical RAM for      wfcinit/wfcrot:       1.03 MB

     Dynamical RAM for           addusdens:       9.18 MB

     Estimated static dynamical RAM per process >       7.22 MB

     Estimated max dynamical RAM per process >      16.39 MB

     G-vector sticks info
     --------------------
     sticks:   dense  smooth     PW     G-vecs:    dense   smooth      PW
     Sum         313     313     97                13363    13363    2315


     Title: 
     Unstrained graphene optimization. 2 atoms fragment. BANDS                  


     bravais-lattice index     =            0
     lattice parameter (alat)  =       4.6638  a.u.
     unit-cell volume          =     263.2433 (a.u.)^3
     number of atoms/cell      =            4
     number of atomic types    =            3
     number of electrons       =        16.00
     number of Kohn-Sham states=           20
     kinetic-energy cutoff     =      52.0000  Ry
     charge density cutoff     =     208.0000  Ry
     Exchange-correlation= SLA PW PBX PBC
                           (   1   4   3   4   0   0   0)

     celldm(1)=   4.663844  celldm(2)=   0.000000  celldm(3)=   0.000000
     celldm(4)=   0.000000  celldm(5)=   0.000000  celldm(6)=   0.000000

     crystal axes: (cart. coord. in units of alat)
               a(1) = (   1.007020  -0.000003   0.000449 )  
               a(2) = (  -0.503513   0.872109   0.000267 )  
               a(3) = (   0.001128   0.001431   2.954726 )  

     reciprocal axes: (cart. coord. in units 2 pi/alat)
               b(1) = (  0.993030  0.573327 -0.000657 )  
               b(2) = (  0.000004  1.146648 -0.000555 )  
               b(3) = ( -0.000151 -0.000191  0.338441 )  


     PseudoPot. # 1 for C  read from file:
     ./C.pbe-n-kjpaw_psl.0.1.UPF
     MD5 check sum: 430fe95172b1e11ef3f8ed03bac87931
     Pseudo is Projector augmented-wave + core cor, Zval =  4.0
     Generated using "atomic" code by A. Dal Corso v.5.0.99 svn rev. 10869
     Shape of augmentation charge: BESSEL
     Using radial grid of 1073 points,  4 beta functions with: 
                l(1) =   0
                l(2) =   0
                l(3) =   1
                l(4) =   1
     Q(r) pseudized with 0 coefficients 


     PseudoPot. # 2 for B  read from file:
     ./B.pbe-n-kjpaw_psl.0.1.UPF
     MD5 check sum: b4345a612e0782cca08559f453f3313f
     Pseudo is Projector augmented-wave + core cor, Zval =  3.0
     Generated using "atomic" code by A. Dal Corso v.5.0.99 svn rev. 10869
     Shape of augmentation charge: BESSEL
     Using radial grid of 1059 points,  4 beta functions with: 
                l(1) =   0
                l(2) =   0
                l(3) =   1
                l(4) =   1
     Q(r) pseudized with 0 coefficients 


     PseudoPot. # 3 for N  read from file:
     ./N.pbe-n-kjpaw_psl.0.1.UPF
     MD5 check sum: f73187c8b701007e77325f868c9291d7
     Pseudo is Projector augmented-wave + core cor, Zval =  5.0
     Generated using "atomic" code by A. Dal Corso v.5.0.99 svn rev. 10869
     Shape of augmentation charge: PSQ
     Using radial grid of 1085 points,  4 beta functions with: 
                l(1) =   0
                l(2) =   0
                l(3) =   1
                l(4) =   1
     Q(r) pseudized with 0 coefficients 


     atomic species   valence    mass     pseudopotential
        C              4.00    12.01100     C ( 1.00)
        B              3.00    10.81700     B ( 1.00)
        N              5.00    14.00700     N ( 1.00)

     No symmetry found


                                    s                        frac. trans.

      isym =  1     identity                                     

 cryst.   s( 1) = (     1          0          0      )
                  (     0          1          0      )
                  (     0          0          1      )

 cart.    s( 1) = (  1.0000000 -0.0000000 -0.0000000 )
                  (  0.0000000  1.0000000 -0.0000000 )
                  (  0.0000000  0.0000000  1.0000000 )


   Cartesian axes

     site n.     atom                  positions (alat units)
         1           B   tau(   1) = (   0.0055800   0.5846645   1.2634664  )
         2           N   tau(   2) = (   0.5091014   0.2939623   1.2636912  )
         3           C   tau(   3) = (   0.0080931   0.0051005   2.7536644  )
         4           C   tau(   4) = (   0.0080988   0.5865134   2.7540945  )

   Crystallographic axes

     site n.     atom                  positions (cryst. coord.)
         1           B   tau(   1) = (  0.3399155  0.6697031  0.4274965  )
         2           N   tau(   2) = (  0.6732599  0.3363716  0.4275521  )
         3           C   tau(   3) = (  0.0091529  0.0043198  0.9319507  )
         4           C   tau(   4) = (  0.3424981  0.6709956  0.9319855  )

     number of k points=   101  Methfessel-Paxton smearing, width (Ry)=  0.0200
                       cart. coord. in units 2pi/alat
        k(    1) = (   0.0000000   0.0000000   0.0000000), wk =   0.0198020
        k(    2) = (   0.0165505   0.0000001  -0.0000063), wk =   0.0198020
        k(    3) = (   0.0331010   0.0000001  -0.0000126), wk =   0.0198020
        k(    4) = (   0.0496514   0.0000002  -0.0000190), wk =   0.0198020
        k(    5) = (   0.0662019   0.0000002  -0.0000253), wk =   0.0198020
        k(    6) = (   0.0827524   0.0000003  -0.0000316), wk =   0.0198020
        k(    7) = (   0.0993029   0.0000003  -0.0000379), wk =   0.0198020
        k(    8) = (   0.1158533   0.0000004  -0.0000442), wk =   0.0198020
        k(    9) = (   0.1324038   0.0000004  -0.0000505), wk =   0.0198020
        k(   10) = (   0.1489543   0.0000005  -0.0000569), wk =   0.0198020
        k(   11) = (   0.1655048   0.0000005  -0.0000632), wk =   0.0198020
        k(   12) = (   0.1820553   0.0000006  -0.0000695), wk =   0.0198020
        k(   13) = (   0.1986057   0.0000006  -0.0000758), wk =   0.0198020
        k(   14) = (   0.2151562   0.0000007  -0.0000821), wk =   0.0198020
        k(   15) = (   0.2317067   0.0000007  -0.0000884), wk =   0.0198020
        k(   16) = (   0.2482572   0.0000008  -0.0000948), wk =   0.0198020
        k(   17) = (   0.2648076   0.0000008  -0.0001011), wk =   0.0198020
        k(   18) = (   0.2813581   0.0000009  -0.0001074), wk =   0.0198020
        k(   19) = (   0.2979086   0.0000009  -0.0001137), wk =   0.0198020
        k(   20) = (   0.3144591   0.0000010  -0.0001200), wk =   0.0198020
        k(   21) = (   0.3310096   0.0000010  -0.0001263), wk =   0.0198020
        k(   22) = (   0.3475600   0.0000011  -0.0001327), wk =   0.0198020
        k(   23) = (   0.3641105   0.0000011  -0.0001390), wk =   0.0198020
        k(   24) = (   0.3806610   0.0000012  -0.0001453), wk =   0.0198020
        k(   25) = (   0.3972115   0.0000012  -0.0001516), wk =   0.0198020
        k(   26) = (   0.4137619   0.0000013  -0.0001579), wk =   0.0198020
        k(   27) = (   0.4303124   0.0000013  -0.0001643), wk =   0.0198020
        k(   28) = (   0.4468629   0.0000014  -0.0001706), wk =   0.0198020
        k(   29) = (   0.4634134   0.0000014  -0.0001769), wk =   0.0198020
        k(   30) = (   0.4799639   0.0000015  -0.0001832), wk =   0.0198020
        k(   31) = (   0.4965143   0.0000015  -0.0001895), wk =   0.0198020
        k(   32) = (   0.5130648   0.0000016  -0.0001958), wk =   0.0198020
        k(   33) = (   0.5296153   0.0000016  -0.0002022), wk =   0.0198020
        k(   34) = (   0.5461658   0.0000017  -0.0002085), wk =   0.0198020
        k(   35) = (   0.5627162   0.0000017  -0.0002148), wk =   0.0198020
        k(   36) = (   0.5792667   0.0000018  -0.0002211), wk =   0.0198020
        k(   37) = (   0.5958172   0.0000018  -0.0002274), wk =   0.0198020
        k(   38) = (   0.6123677   0.0000019  -0.0002337), wk =   0.0198020
        k(   39) = (   0.6289182   0.0000019  -0.0002401), wk =   0.0198020
        k(   40) = (   0.6454686   0.0000020  -0.0002464), wk =   0.0198020
        k(   41) = (   0.6620191   0.0000020  -0.0002527), wk =   0.0198020
        k(   42) = (   0.6537439   0.0143351  -0.0002565), wk =   0.0198020
        k(   43) = (   0.6454687   0.0286682  -0.0002603), wk =   0.0198020
        k(   44) = (   0.6371935   0.0430013  -0.0002640), wk =   0.0198020
        k(   45) = (   0.6289183   0.0573343  -0.0002678), wk =   0.0198020
        k(   46) = (   0.6206431   0.0716674  -0.0002716), wk =   0.0198020
        k(   47) = (   0.6123679   0.0860005  -0.0002754), wk =   0.0198020
        k(   48) = (   0.6040927   0.1003336  -0.0002792), wk =   0.0198020
        k(   49) = (   0.5958175   0.1146666  -0.0002829), wk =   0.0198020
        k(   50) = (   0.5875424   0.1289997  -0.0002867), wk =   0.0198020
        k(   51) = (   0.5792672   0.1433328  -0.0002905), wk =   0.0198020
        k(   52) = (   0.5709920   0.1576659  -0.0002943), wk =   0.0198020
        k(   53) = (   0.5627168   0.1719989  -0.0002981), wk =   0.0198020
        k(   54) = (   0.5544416   0.1863320  -0.0003018), wk =   0.0198020
        k(   55) = (   0.5461664   0.2006651  -0.0003056), wk =   0.0198020
        k(   56) = (   0.5378912   0.2149982  -0.0003094), wk =   0.0198020
        k(   57) = (   0.5296160   0.2293313  -0.0003132), wk =   0.0198020
        k(   58) = (   0.5213408   0.2436643  -0.0003170), wk =   0.0198020
        k(   59) = (   0.5130656   0.2579974  -0.0003207), wk =   0.0198020
        k(   60) = (   0.5047904   0.2723305  -0.0003245), wk =   0.0198020
        k(   61) = (   0.4965152   0.2866636  -0.0003283), wk =   0.0198020
        k(   62) = (   0.4841023   0.2794970  -0.0003201), wk =   0.0198020
        k(   63) = (   0.4716895   0.2723304  -0.0003119), wk =   0.0198020
        k(   64) = (   0.4592766   0.2651638  -0.0003037), wk =   0.0198020
        k(   65) = (   0.4468637   0.2579972  -0.0002955), wk =   0.0198020
        k(   66) = (   0.4344508   0.2508306  -0.0002873), wk =   0.0198020
        k(   67) = (   0.4220379   0.2436640  -0.0002791), wk =   0.0198020
        k(   68) = (   0.4096251   0.2364974  -0.0002709), wk =   0.0198020
        k(   69) = (   0.3972122   0.2293309  -0.0002626), wk =   0.0198020
        k(   70) = (   0.3847993   0.2221643  -0.0002544), wk =   0.0198020
        k(   71) = (   0.3723864   0.2149977  -0.0002462), wk =   0.0198020
        k(   72) = (   0.3599735   0.2078311  -0.0002380), wk =   0.0198020
        k(   73) = (   0.3475607   0.2006645  -0.0002298), wk =   0.0198020
        k(   74) = (   0.3351478   0.1934979  -0.0002216), wk =   0.0198020
        k(   75) = (   0.3227349   0.1863313  -0.0002134), wk =   0.0198020
        k(   76) = (   0.3103220   0.1791647  -0.0002052), wk =   0.0198020
        k(   77) = (   0.2979091   0.1719981  -0.0001970), wk =   0.0198020
        k(   78) = (   0.2854962   0.1648315  -0.0001888), wk =   0.0198020
        k(   79) = (   0.2730834   0.1576650  -0.0001806), wk =   0.0198020
        k(   80) = (   0.2606705   0.1504984  -0.0001724), wk =   0.0198020
        k(   81) = (   0.2482576   0.1433318  -0.0001642), wk =   0.0198020
        k(   82) = (   0.2358447   0.1361652  -0.0001559), wk =   0.0198020
        k(   83) = (   0.2234318   0.1289986  -0.0001477), wk =   0.0198020
        k(   84) = (   0.2110190   0.1218320  -0.0001395), wk =   0.0198020
        k(   85) = (   0.1986061   0.1146654  -0.0001313), wk =   0.0198020
        k(   86) = (   0.1861932   0.1074988  -0.0001231), wk =   0.0198020
        k(   87) = (   0.1737803   0.1003322  -0.0001149), wk =   0.0198020
        k(   88) = (   0.1613674   0.0931657  -0.0001067), wk =   0.0198020
        k(   89) = (   0.1489546   0.0859991  -0.0000985), wk =   0.0198020
        k(   90) = (   0.1365417   0.0788325  -0.0000903), wk =   0.0198020
        k(   91) = (   0.1241288   0.0716659  -0.0000821), wk =   0.0198020
        k(   92) = (   0.1117159   0.0644993  -0.0000739), wk =   0.0198020
        k(   93) = (   0.0993030   0.0573327  -0.0000657), wk =   0.0198020
        k(   94) = (   0.0868902   0.0501661  -0.0000575), wk =   0.0198020
        k(   95) = (   0.0744773   0.0429995  -0.0000492), wk =   0.0198020
        k(   96) = (   0.0620644   0.0358329  -0.0000410), wk =   0.0198020
        k(   97) = (   0.0496515   0.0286664  -0.0000328), wk =   0.0198020
        k(   98) = (   0.0372386   0.0214998  -0.0000246), wk =   0.0198020
        k(   99) = (   0.0248258   0.0143332  -0.0000164), wk =   0.0198020
        k(  100) = (   0.0124129   0.0071666  -0.0000082), wk =   0.0198020
        k(  101) = (   0.0000000   0.0000000   0.0000000), wk =   0.0198020

                       cryst. coord.
        k(    1) = (   0.0000000   0.0000000   0.0000000), wk =   0.0198020
        k(    2) = (   0.0166667  -0.0083333  -0.0000000), wk =   0.0198020
        k(    3) = (   0.0333333  -0.0166667  -0.0000000), wk =   0.0198020
        k(    4) = (   0.0500000  -0.0250000  -0.0000000), wk =   0.0198020
        k(    5) = (   0.0666667  -0.0333333  -0.0000000), wk =   0.0198020
        k(    6) = (   0.0833333  -0.0416667   0.0000000), wk =   0.0198020
        k(    7) = (   0.1000000  -0.0500000  -0.0000000), wk =   0.0198020
        k(    8) = (   0.1166667  -0.0583333  -0.0000000), wk =   0.0198020
        k(    9) = (   0.1333333  -0.0666667  -0.0000000), wk =   0.0198020
        k(   10) = (   0.1500000  -0.0750000  -0.0000000), wk =   0.0198020
        k(   11) = (   0.1666667  -0.0833333   0.0000000), wk =   0.0198020
        k(   12) = (   0.1833333  -0.0916667  -0.0000000), wk =   0.0198020
        k(   13) = (   0.2000000  -0.1000000  -0.0000000), wk =   0.0198020
        k(   14) = (   0.2166667  -0.1083333   0.0000000), wk =   0.0198020
        k(   15) = (   0.2333333  -0.1166667  -0.0000000), wk =   0.0198020
        k(   16) = (   0.2500000  -0.1250000   0.0000000), wk =   0.0198020
        k(   17) = (   0.2666667  -0.1333333  -0.0000000), wk =   0.0198020
        k(   18) = (   0.2833333  -0.1416667  -0.0000000), wk =   0.0198020
        k(   19) = (   0.3000000  -0.1500000  -0.0000000), wk =   0.0198020
        k(   20) = (   0.3166667  -0.1583333  -0.0000000), wk =   0.0198020
        k(   21) = (   0.3333333  -0.1666667   0.0000000), wk =   0.0198020
        k(   22) = (   0.3500000  -0.1750000  -0.0000000), wk =   0.0198020
        k(   23) = (   0.3666667  -0.1833333  -0.0000000), wk =   0.0198020
        k(   24) = (   0.3833333  -0.1916667  -0.0000000), wk =   0.0198020
        k(   25) = (   0.4000000  -0.2000000  -0.0000000), wk =   0.0198020
        k(   26) = (   0.4166667  -0.2083333  -0.0000000), wk =   0.0198020
        k(   27) = (   0.4333333  -0.2166667   0.0000000), wk =   0.0198020
        k(   28) = (   0.4500000  -0.2250000  -0.0000000), wk =   0.0198020
        k(   29) = (   0.4666667  -0.2333333  -0.0000000), wk =   0.0198020
        k(   30) = (   0.4833333  -0.2416667   0.0000000), wk =   0.0198020
        k(   31) = (   0.5000000  -0.2500000   0.0000000), wk =   0.0198020
        k(   32) = (   0.5166667  -0.2583333  -0.0000000), wk =   0.0198020
        k(   33) = (   0.5333333  -0.2666667  -0.0000000), wk =   0.0198020
        k(   34) = (   0.5500000  -0.2750000   0.0000000), wk =   0.0198020
        k(   35) = (   0.5666667  -0.2833333  -0.0000000), wk =   0.0198020
        k(   36) = (   0.5833333  -0.2916667  -0.0000000), wk =   0.0198020
        k(   37) = (   0.6000000  -0.3000000  -0.0000000), wk =   0.0198020
        k(   38) = (   0.6166667  -0.3083333   0.0000000), wk =   0.0198020
        k(   39) = (   0.6333333  -0.3166667  -0.0000000), wk =   0.0198020
        k(   40) = (   0.6500000  -0.3250000  -0.0000000), wk =   0.0198020
        k(   41) = (   0.6666667  -0.3333333   0.0000000), wk =   0.0198020
        k(   42) = (   0.6583333  -0.3166667  -0.0000000), wk =   0.0198020
        k(   43) = (   0.6500000  -0.3000000  -0.0000000), wk =   0.0198020
        k(   44) = (   0.6416667  -0.2833333  -0.0000000), wk =   0.0198020
        k(   45) = (   0.6333333  -0.2666667   0.0000000), wk =   0.0198020
        k(   46) = (   0.6250000  -0.2500000  -0.0000000), wk =   0.0198020
        k(   47) = (   0.6166667  -0.2333333  -0.0000000), wk =   0.0198020
        k(   48) = (   0.6083333  -0.2166667   0.0000000), wk =   0.0198020
        k(   49) = (   0.6000000  -0.2000000   0.0000000), wk =   0.0198020
        k(   50) = (   0.5916667  -0.1833333  -0.0000000), wk =   0.0198020
        k(   51) = (   0.5833333  -0.1666667  -0.0000000), wk =   0.0198020
        k(   52) = (   0.5750000  -0.1500000   0.0000000), wk =   0.0198020
        k(   53) = (   0.5666667  -0.1333333  -0.0000000), wk =   0.0198020
        k(   54) = (   0.5583333  -0.1166667   0.0000000), wk =   0.0198020
        k(   55) = (   0.5500000  -0.1000000  -0.0000000), wk =   0.0198020
        k(   56) = (   0.5416667  -0.0833333  -0.0000000), wk =   0.0198020
        k(   57) = (   0.5333333  -0.0666667  -0.0000000), wk =   0.0198020
        k(   58) = (   0.5250000  -0.0500000  -0.0000000), wk =   0.0198020
        k(   59) = (   0.5166667  -0.0333333  -0.0000000), wk =   0.0198020
        k(   60) = (   0.5083333  -0.0166667  -0.0000000), wk =   0.0198020
        k(   61) = (   0.5000000  -0.0000000  -0.0000000), wk =   0.0198020
        k(   62) = (   0.4875000  -0.0000000  -0.0000000), wk =   0.0198020
        k(   63) = (   0.4750000   0.0000000  -0.0000000), wk =   0.0198020
        k(   64) = (   0.4625000  -0.0000000  -0.0000000), wk =   0.0198020
        k(   65) = (   0.4500000   0.0000000  -0.0000000), wk =   0.0198020
        k(   66) = (   0.4375000   0.0000000   0.0000000), wk =   0.0198020
        k(   67) = (   0.4250000   0.0000000  -0.0000000), wk =   0.0198020
        k(   68) = (   0.4125000   0.0000000  -0.0000000), wk =   0.0198020
        k(   69) = (   0.4000000  -0.0000000  -0.0000000), wk =   0.0198020
        k(   70) = (   0.3875000  -0.0000000   0.0000000), wk =   0.0198020
        k(   71) = (   0.3750000   0.0000000  -0.0000000), wk =   0.0198020
        k(   72) = (   0.3625000   0.0000000  -0.0000000), wk =   0.0198020
        k(   73) = (   0.3500000   0.0000000  -0.0000000), wk =   0.0198020
        k(   74) = (   0.3375000   0.0000000  -0.0000000), wk =   0.0198020
        k(   75) = (   0.3250000  -0.0000000  -0.0000000), wk =   0.0198020
        k(   76) = (   0.3125000  -0.0000000  -0.0000000), wk =   0.0198020
        k(   77) = (   0.3000000  -0.0000000  -0.0000000), wk =   0.0198020
        k(   78) = (   0.2875000   0.0000000  -0.0000000), wk =   0.0198020
        k(   79) = (   0.2750000   0.0000000  -0.0000000), wk =   0.0198020
        k(   80) = (   0.2625000  -0.0000000   0.0000000), wk =   0.0198020
        k(   81) = (   0.2500000  -0.0000000  -0.0000000), wk =   0.0198020
        k(   82) = (   0.2375000   0.0000000  -0.0000000), wk =   0.0198020
        k(   83) = (   0.2250000  -0.0000000  -0.0000000), wk =   0.0198020
        k(   84) = (   0.2125000   0.0000000  -0.0000000), wk =   0.0198020
        k(   85) = (   0.2000000  -0.0000000  -0.0000000), wk =   0.0198020
        k(   86) = (   0.1875000   0.0000000  -0.0000000), wk =   0.0198020
        k(   87) = (   0.1750000   0.0000000  -0.0000000), wk =   0.0198020
        k(   88) = (   0.1625000  -0.0000000  -0.0000000), wk =   0.0198020
        k(   89) = (   0.1500000  -0.0000000  -0.0000000), wk =   0.0198020
        k(   90) = (   0.1375000  -0.0000000   0.0000000), wk =   0.0198020
        k(   91) = (   0.1250000  -0.0000000  -0.0000000), wk =   0.0198020
        k(   92) = (   0.1125000  -0.0000000  -0.0000000), wk =   0.0198020
        k(   93) = (   0.1000000  -0.0000000  -0.0000000), wk =   0.0198020
        k(   94) = (   0.0875000   0.0000000  -0.0000000), wk =   0.0198020
        k(   95) = (   0.0750000  -0.0000000  -0.0000000), wk =   0.0198020
        k(   96) = (   0.0625000  -0.0000000  -0.0000000), wk =   0.0198020
        k(   97) = (   0.0500000  -0.0000000  -0.0000000), wk =   0.0198020
        k(   98) = (   0.0375000  -0.0000000  -0.0000000), wk =   0.0198020
        k(   99) = (   0.0250000  -0.0000000   0.0000000), wk =   0.0198020
        k(  100) = (   0.0125000   0.0000000   0.0000000), wk =   0.0198020
        k(  101) = (   0.0000000   0.0000000   0.0000000), wk =   0.0198020

     Dense  grid:    13363 G-vectors     FFT dimensions: (  24,  24,  64)

     Dynamical RAM for                 wfc:       0.51 MB

     Dynamical RAM for     wfc (w. buffer):       0.51 MB

     Dynamical RAM for           str. fact:       0.61 MB

     Dynamical RAM for           local pot:       0.00 MB

     Dynamical RAM for          nlocal pot:       0.81 MB

     Dynamical RAM for                qrad:       0.74 MB

     Dynamical RAM for          rho,v,vnew:       1.46 MB

     Dynamical RAM for           G-vectors:       0.87 MB

     Dynamical RAM for          h,s,v(r/c):       0.29 MB

     Dynamical RAM for          <psi|beta>:       0.01 MB

     Dynamical RAM for                 psi:       2.03 MB

     Dynamical RAM for                hpsi:       2.03 MB

     Dynamical RAM for                spsi:       2.03 MB

     Dynamical RAM for      wfcinit/wfcrot:       1.03 MB

     Dynamical RAM for           addusdens:       9.18 MB

     Estimated static dynamical RAM per process >       7.22 MB

     Estimated max dynamical RAM per process >      16.39 MB

     Check: negative core charge=   -0.000045

     The potential is recalculated from file :
     ./Gr_BN.save/charge-density


     Check: negative core charge=   -0.000045

     The potential is recalculated from file :
     ./Gr_BN.save/charge-density

     Starting wfcs are   16 randomized atomic wfcs +    4 random wfcs

     Band Structure Calculation
     Davidson diagonalization with overlap

     Computing kpt #:     1  of   101
     Starting wfcs are   16 randomized atomic wfcs +    4 random wfcs

     Band Structure Calculation
     Davidson diagonalization with overlap

     Computing kpt #:     1  of   101
     total cpu time spent up to now is        1.9 secs

     Computing kpt #:     2  of   101
     total cpu time spent up to now is        1.9 secs

     Computing kpt #:     2  of   101
     total cpu time spent up to now is        2.1 secs

     Computing kpt #:     3  of   101
     total cpu time spent up to now is        2.1 secs

     Computing kpt #:     3  of   101
     total cpu time spent up to now is        2.4 secs

     Computing kpt #:     4  of   101
     total cpu time spent up to now is        2.4 secs

     Computing kpt #:     4  of   101
     total cpu time spent up to now is        2.6 secs

     Computing kpt #:     5  of   101
     total cpu time spent up to now is        2.6 secs

     Computing kpt #:     5  of   101
     total cpu time spent up to now is        2.9 secs

     Computing kpt #:     6  of   101
     total cpu time spent up to now is        2.9 secs

     Computing kpt #:     6  of   101
     total cpu time spent up to now is        3.2 secs

     Computing kpt #:     7  of   101
     total cpu time spent up to now is        3.2 secs

     Computing kpt #:     7  of   101
     total cpu time spent up to now is        3.5 secs

     Computing kpt #:     8  of   101
     total cpu time spent up to now is        3.5 secs

     Computing kpt #:     8  of   101
     total cpu time spent up to now is        3.8 secs

     Computing kpt #:     9  of   101
     total cpu time spent up to now is        3.8 secs

     Computing kpt #:     9  of   101
     total cpu time spent up to now is        4.1 secs

     Computing kpt #:    10  of   101
     total cpu time spent up to now is        4.1 secs

     Computing kpt #:    10  of   101
     total cpu time spent up to now is        4.3 secs

     Computing kpt #:    11  of   101
     total cpu time spent up to now is        4.3 secs

     Computing kpt #:    11  of   101
     total cpu time spent up to now is        4.6 secs

     Computing kpt #:    12  of   101
     total cpu time spent up to now is        4.6 secs

     Computing kpt #:    12  of   101
     total cpu time spent up to now is        4.9 secs

     Computing kpt #:    13  of   101
     total cpu time spent up to now is        4.9 secs

     Computing kpt #:    13  of   101
     total cpu time spent up to now is        5.1 secs

     Computing kpt #:    14  of   101
     total cpu time spent up to now is        5.1 secs

     Computing kpt #:    14  of   101
     total cpu time spent up to now is        5.4 secs

     Computing kpt #:    15  of   101
     total cpu time spent up to now is        5.4 secs

     Computing kpt #:    15  of   101
     total cpu time spent up to now is        5.7 secs

     Computing kpt #:    16  of   101
     total cpu time spent up to now is        5.7 secs

     Computing kpt #:    16  of   101
     total cpu time spent up to now is        5.9 secs

     Computing kpt #:    17  of   101
     total cpu time spent up to now is        5.9 secs

     Computing kpt #:    17  of   101
     total cpu time spent up to now is        6.2 secs

     Computing kpt #:    18  of   101
     total cpu time spent up to now is        6.2 secs

     Computing kpt #:    18  of   101
     total cpu time spent up to now is        6.5 secs

     Computing kpt #:    19  of   101
     total cpu time spent up to now is        6.5 secs

     Computing kpt #:    19  of   101
     total cpu time spent up to now is        6.7 secs

     Computing kpt #:    20  of   101
     total cpu time spent up to now is        6.7 secs

     Computing kpt #:    20  of   101
     total cpu time spent up to now is        7.0 secs

     Computing kpt #:    21  of   101
     total cpu time spent up to now is        7.0 secs

     Computing kpt #:    21  of   101
     total cpu time spent up to now is        7.3 secs

     Computing kpt #:    22  of   101
     total cpu time spent up to now is        7.3 secs

     Computing kpt #:    22  of   101
     total cpu time spent up to now is        7.7 secs

     Computing kpt #:    23  of   101
     total cpu time spent up to now is        7.7 secs

     Computing kpt #:    23  of   101
     total cpu time spent up to now is        8.0 secs

     Computing kpt #:    24  of   101
     total cpu time spent up to now is        8.0 secs

     Computing kpt #:    24  of   101
     total cpu time spent up to now is        8.4 secs

     Computing kpt #:    25  of   101
     total cpu time spent up to now is        8.4 secs

     Computing kpt #:    25  of   101
     total cpu time spent up to now is        8.6 secs

     Computing kpt #:    26  of   101
     total cpu time spent up to now is        8.6 secs

     Computing kpt #:    26  of   101
     total cpu time spent up to now is        9.0 secs

     Computing kpt #:    27  of   101
     total cpu time spent up to now is        9.0 secs

     Computing kpt #:    27  of   101
     total cpu time spent up to now is        9.4 secs

     Computing kpt #:    28  of   101
     total cpu time spent up to now is        9.4 secs

     Computing kpt #:    28  of   101
     total cpu time spent up to now is        9.7 secs

     Computing kpt #:    29  of   101
     total cpu time spent up to now is        9.7 secs

     Computing kpt #:    29  of   101
     total cpu time spent up to now is       10.1 secs

     Computing kpt #:    30  of   101
     total cpu time spent up to now is       10.1 secs

     Computing kpt #:    30  of   101
     total cpu time spent up to now is       10.3 secs

     Computing kpt #:    31  of   101
     total cpu time spent up to now is       10.3 secs

     Computing kpt #:    31  of   101
     total cpu time spent up to now is       10.6 secs

     Computing kpt #:    32  of   101
     total cpu time spent up to now is       10.6 secs

     Computing kpt #:    32  of   101
     total cpu time spent up to now is       11.0 secs

     Computing kpt #:    33  of   101
     total cpu time spent up to now is       11.0 secs

     Computing kpt #:    33  of   101
     total cpu time spent up to now is       11.3 secs

     Computing kpt #:    34  of   101
     total cpu time spent up to now is       11.3 secs

     Computing kpt #:    34  of   101
     total cpu time spent up to now is       11.6 secs

     Computing kpt #:    35  of   101
     total cpu time spent up to now is       11.6 secs

     Computing kpt #:    35  of   101
     total cpu time spent up to now is       12.0 secs

     Computing kpt #:    36  of   101
     total cpu time spent up to now is       12.0 secs

     Computing kpt #:    36  of   101
     total cpu time spent up to now is       12.4 secs

     Computing kpt #:    37  of   101
     total cpu time spent up to now is       12.4 secs

     Computing kpt #:    37  of   101
     total cpu time spent up to now is       12.8 secs

     Computing kpt #:    38  of   101
     total cpu time spent up to now is       12.8 secs

     Computing kpt #:    38  of   101
     total cpu time spent up to now is       13.2 secs

     Computing kpt #:    39  of   101
     total cpu time spent up to now is       13.2 secs

     Computing kpt #:    39  of   101
     total cpu time spent up to now is       13.5 secs

     Computing kpt #:    40  of   101
     total cpu time spent up to now is       13.5 secs

     Computing kpt #:    40  of   101
     total cpu time spent up to now is       13.9 secs

     Computing kpt #:    41  of   101
     total cpu time spent up to now is       13.9 secs

     Computing kpt #:    41  of   101
     total cpu time spent up to now is       14.3 secs

     Computing kpt #:    42  of   101
     total cpu time spent up to now is       14.3 secs

     Computing kpt #:    42  of   101
     total cpu time spent up to now is       14.7 secs

     Computing kpt #:    43  of   101
     total cpu time spent up to now is       14.7 secs

     Computing kpt #:    43  of   101
     total cpu time spent up to now is       15.1 secs

     Computing kpt #:    44  of   101
     total cpu time spent up to now is       15.1 secs

     Computing kpt #:    44  of   101
     total cpu time spent up to now is       15.5 secs

     Computing kpt #:    45  of   101
     total cpu time spent up to now is       15.5 secs

     Computing kpt #:    45  of   101
     total cpu time spent up to now is       15.9 secs

     Computing kpt #:    46  of   101
     total cpu time spent up to now is       15.9 secs

     Computing kpt #:    46  of   101
     total cpu time spent up to now is       16.3 secs

     Computing kpt #:    47  of   101
     total cpu time spent up to now is       16.3 secs

     Computing kpt #:    47  of   101
     total cpu time spent up to now is       16.7 secs

     Computing kpt #:    48  of   101
     total cpu time spent up to now is       16.7 secs

     Computing kpt #:    48  of   101
     total cpu time spent up to now is       17.0 secs

     Computing kpt #:    49  of   101
     total cpu time spent up to now is       17.1 secs

     Computing kpt #:    49  of   101
     total cpu time spent up to now is       17.5 secs

     Computing kpt #:    50  of   101
     total cpu time spent up to now is       17.5 secs

     Computing kpt #:    50  of   101
     total cpu time spent up to now is       17.8 secs

     Computing kpt #:    51  of   101
     total cpu time spent up to now is       17.9 secs

     Computing kpt #:    51  of   101
     total cpu time spent up to now is       18.2 secs

     Computing kpt #:    52  of   101
     total cpu time spent up to now is       18.2 secs

     Computing kpt #:    52  of   101
     total cpu time spent up to now is       18.5 secs

     Computing kpt #:    53  of   101
     total cpu time spent up to now is       18.6 secs

     Computing kpt #:    53  of   101
     total cpu time spent up to now is       18.9 secs

     Computing kpt #:    54  of   101
     total cpu time spent up to now is       18.9 secs

     Computing kpt #:    54  of   101
     total cpu time spent up to now is       19.2 secs

     Computing kpt #:    55  of   101
     total cpu time spent up to now is       19.2 secs

     Computing kpt #:    55  of   101
     total cpu time spent up to now is       19.5 secs

     Computing kpt #:    56  of   101
     total cpu time spent up to now is       19.6 secs

     Computing kpt #:    56  of   101
     total cpu time spent up to now is       19.8 secs

     Computing kpt #:    57  of   101
     total cpu time spent up to now is       19.8 secs

     Computing kpt #:    57  of   101
     total cpu time spent up to now is       20.2 secs

     Computing kpt #:    58  of   101
     total cpu time spent up to now is       20.2 secs

     Computing kpt #:    58  of   101
     total cpu time spent up to now is       20.4 secs

     Computing kpt #:    59  of   101
     total cpu time spent up to now is       20.5 secs

     Computing kpt #:    59  of   101
     total cpu time spent up to now is       20.8 secs

     Computing kpt #:    60  of   101
     total cpu time spent up to now is       20.8 secs

     Computing kpt #:    60  of   101
     total cpu time spent up to now is       21.2 secs

     Computing kpt #:    61  of   101
     total cpu time spent up to now is       21.2 secs

     Computing kpt #:    61  of   101
     total cpu time spent up to now is       21.5 secs

     Computing kpt #:    62  of   101
     total cpu time spent up to now is       21.6 secs

     Computing kpt #:    62  of   101
     total cpu time spent up to now is       21.9 secs

     Computing kpt #:    63  of   101
     total cpu time spent up to now is       21.9 secs

     Computing kpt #:    63  of   101
     total cpu time spent up to now is       22.2 secs

     Computing kpt #:    64  of   101
     total cpu time spent up to now is       22.3 secs

     Computing kpt #:    64  of   101
     total cpu time spent up to now is       22.6 secs

     Computing kpt #:    65  of   101
     total cpu time spent up to now is       22.6 secs

     Computing kpt #:    65  of   101
     total cpu time spent up to now is       23.0 secs

     Computing kpt #:    66  of   101
     total cpu time spent up to now is       23.0 secs

     Computing kpt #:    66  of   101
     total cpu time spent up to now is       23.3 secs

     Computing kpt #:    67  of   101
     total cpu time spent up to now is       23.3 secs

     Computing kpt #:    67  of   101
     total cpu time spent up to now is       23.7 secs

     Computing kpt #:    68  of   101
     total cpu time spent up to now is       23.7 secs

     Computing kpt #:    68  of   101
     total cpu time spent up to now is       24.1 secs

     Computing kpt #:    69  of   101
     total cpu time spent up to now is       24.1 secs

     Computing kpt #:    69  of   101
     total cpu time spent up to now is       24.4 secs

     Computing kpt #:    70  of   101
     total cpu time spent up to now is       24.4 secs

     Computing kpt #:    70  of   101
     total cpu time spent up to now is       24.7 secs

     Computing kpt #:    71  of   101
     total cpu time spent up to now is       24.7 secs

     Computing kpt #:    71  of   101
     total cpu time spent up to now is       25.0 secs

     Computing kpt #:    72  of   101
     total cpu time spent up to now is       25.0 secs

     Computing kpt #:    72  of   101
     total cpu time spent up to now is       25.2 secs

     Computing kpt #:    73  of   101
     total cpu time spent up to now is       25.3 secs

     Computing kpt #:    73  of   101
     total cpu time spent up to now is       25.5 secs

     Computing kpt #:    74  of   101
     total cpu time spent up to now is       25.5 secs

     Computing kpt #:    74  of   101
     total cpu time spent up to now is       25.8 secs

     Computing kpt #:    75  of   101
     total cpu time spent up to now is       25.8 secs

     Computing kpt #:    75  of   101
     total cpu time spent up to now is       26.1 secs

     Computing kpt #:    76  of   101
     total cpu time spent up to now is       26.1 secs

     Computing kpt #:    76  of   101
     total cpu time spent up to now is       26.3 secs

     Computing kpt #:    77  of   101
     total cpu time spent up to now is       26.3 secs

     Computing kpt #:    77  of   101
     total cpu time spent up to now is       26.6 secs

     Computing kpt #:    78  of   101
     total cpu time spent up to now is       26.6 secs

     Computing kpt #:    78  of   101
     total cpu time spent up to now is       26.8 secs

     Computing kpt #:    79  of   101
     total cpu time spent up to now is       26.9 secs

     Computing kpt #:    79  of   101
     total cpu time spent up to now is       27.1 secs

     Computing kpt #:    80  of   101
     total cpu time spent up to now is       27.1 secs

     Computing kpt #:    80  of   101
     total cpu time spent up to now is       27.4 secs

     Computing kpt #:    81  of   101
     total cpu time spent up to now is       27.4 secs

     Computing kpt #:    81  of   101
     total cpu time spent up to now is       27.6 secs

     Computing kpt #:    82  of   101
     total cpu time spent up to now is       27.7 secs

     Computing kpt #:    82  of   101
     total cpu time spent up to now is       27.9 secs

     Computing kpt #:    83  of   101
     total cpu time spent up to now is       27.9 secs

     Computing kpt #:    83  of   101
     total cpu time spent up to now is       28.2 secs

     Computing kpt #:    84  of   101
     total cpu time spent up to now is       28.2 secs

     Computing kpt #:    84  of   101
     total cpu time spent up to now is       28.4 secs

     Computing kpt #:    85  of   101
     total cpu time spent up to now is       28.4 secs

     Computing kpt #:    85  of   101
     total cpu time spent up to now is       28.7 secs

     Computing kpt #:    86  of   101
     total cpu time spent up to now is       28.7 secs

     Computing kpt #:    86  of   101
     total cpu time spent up to now is       28.9 secs

     Computing kpt #:    87  of   101
     total cpu time spent up to now is       29.0 secs

     Computing kpt #:    87  of   101
     total cpu time spent up to now is       29.2 secs

     Computing kpt #:    88  of   101
     total cpu time spent up to now is       29.2 secs

     Computing kpt #:    88  of   101
     total cpu time spent up to now is       29.5 secs

     Computing kpt #:    89  of   101
     total cpu time spent up to now is       29.5 secs

     Computing kpt #:    89  of   101
     total cpu time spent up to now is       29.7 secs

     Computing kpt #:    90  of   101
     total cpu time spent up to now is       29.7 secs

     Computing kpt #:    90  of   101
     total cpu time spent up to now is       30.0 secs

     Computing kpt #:    91  of   101
     total cpu time spent up to now is       30.0 secs

     Computing kpt #:    91  of   101
     total cpu time spent up to now is       30.2 secs

     Computing kpt #:    92  of   101
     total cpu time spent up to now is       30.3 secs

     Computing kpt #:    92  of   101
     total cpu time spent up to now is       30.5 secs

     Computing kpt #:    93  of   101
     total cpu time spent up to now is       30.6 secs

     Computing kpt #:    93  of   101
     total cpu time spent up to now is       30.8 secs

     Computing kpt #:    94  of   101
     total cpu time spent up to now is       30.9 secs

     Computing kpt #:    94  of   101
[...]

    -9.7987  -7.1636  -6.6294  -4.5700  -3.8196  -2.8052   4.2105   5.2046
     6.0688   9.1310  16.4681  17.0630  17.1215  17.8886  18.6749  19.8303
    20.7837  22.8033  23.9555  24.3240

          k = 0.6372 0.0430-0.0003 (  1664 PWs)   bands (ev):

    -9.8251  -7.3092  -6.6038  -4.4035  -3.8805  -2.6777   4.1639   5.0051
     6.2622   9.1518  16.5319  17.0321  17.1553  17.7788  18.4609  19.6986
    20.8985  22.8415  24.0331  24.4000

          k = 0.6289 0.0573-0.0003 (  1665 PWs)   bands (ev):

    -9.8588  -7.4466  -6.6208  -4.1852  -3.9529  -2.5165   4.1053   4.8166
     6.4391   9.1745  16.6222  16.9199  17.2840  17.6324  18.1626  19.5417
    21.0303  22.9419  24.1794  24.3973

          k = 0.6206 0.0717-0.0003 (  1674 PWs)   bands (ev):

    -9.8981  -7.5759  -6.6665  -4.0304  -3.9301  -2.3314   4.0380   4.6394
     6.5985   9.1965  16.7381  16.7836  17.4291  17.4529  17.8433  19.3484
    21.1758  23.1075  24.3216  24.3818

          k = 0.6124 0.0860-0.0003 (  1664 PWs)   bands (ev):

    -9.9414  -7.6969  -6.7294  -4.1085  -3.6516  -2.1291   3.9650   4.4739
     6.7400   9.2156  16.6156  16.8773  17.1453  17.5815  17.6496  19.1241
    21.3333  23.3205  24.2411  24.6077

          k = 0.6041 0.1003-0.0003 (  1668 PWs)   bands (ev):

    -9.9871  -7.8096  -6.8012  -4.1850  -3.3589  -1.9154   3.8887   4.3201
     6.8638   9.2308  16.3963  16.7973  17.0365  17.3951  17.8811  18.8848
    21.5002  23.5563  24.1555  24.8644

          k = 0.5958 0.1147-0.0003 (  1668 PWs)   bands (ev):

   -10.0338  -7.9140  -6.8766  -4.2582  -3.0595  -1.6949   3.8110   4.1783
     6.9706   9.2415  16.0929  16.4733  17.2072  17.2508  18.1444  18.6469
    21.6735  23.7937  24.0766  25.1187

          k = 0.5875 0.1290-0.0003 (  1661 PWs)   bands (ev):

   -10.0805  -8.0102  -6.9519  -4.3271  -2.7591  -1.4715   3.7336   4.0487
     7.0613   9.2478  15.7127  16.1955  17.1178  17.4003  18.4227  18.4354
    21.8507  23.9891  24.0391  25.2821

          k = 0.5793 0.1433-0.0003 (  1649 PWs)   bands (ev):

   -10.1259  -8.0980  -7.0247  -4.3912  -2.4624  -1.2493   3.6580   3.9314
     7.1373   9.2500  15.3048  15.9333  17.0081  17.5932  18.2196  18.7501
    22.0295  23.9476  24.2356  25.4016

          k = 0.5710 0.1577-0.0003 (  1648 PWs)   bands (ev):

   -10.1694  -8.1775  -7.0933  -4.4499  -2.1742  -1.0320   3.5853   3.8267
     7.2000   9.2486  14.8993  15.6724  16.9126  17.7863  18.0414  19.0830
    22.2079  23.9110  24.4268  25.5014

          k = 0.5627 0.1720-0.0003 (  1644 PWs)   bands (ev):

   -10.2101  -8.2487  -7.1566  -4.5029  -1.8986  -0.8234   3.5164   3.7343
     7.2511   9.2446  14.5109  15.4139  16.8297  17.8777  17.9849  19.4276
    22.3838  23.8963  24.5997  25.5834

          k = 0.5544 0.1863-0.0003 (  1638 PWs)   bands (ev):

   -10.2473  -8.3115  -7.2138  -4.5500  -1.6401  -0.6271   3.4526   3.6541
     7.2920   9.2388  14.1482  15.1641  16.7583  17.7500  18.1611  19.7750
    22.5548  23.9097  24.7528  25.6497

          k = 0.5462 0.2007-0.0003 (  1646 PWs)   bands (ev):

   -10.2805  -8.3660  -7.2643  -4.5911  -1.4032  -0.4471   3.3948   3.5858
     7.3243   9.2319  13.8182  14.9302  16.6974  17.6397  18.3268  20.1142
    22.7182  23.9584  24.8830  25.7048

          k = 0.5379 0.2150-0.0003 (  1652 PWs)   bands (ev):

   -10.3094  -8.4121  -7.3076  -4.6260  -1.1923  -0.2869   3.3440   3.5290
     7.3492   9.2246  13.5269  14.7193  16.6465  17.5488  18.4742  20.4319
    22.8706  24.0505  24.9856  25.7555

          k = 0.5296 0.2293-0.0003 (  1660 PWs)   bands (ev):

   -10.3334  -8.4498  -7.3434  -4.6547  -1.0120  -0.1501   3.3013   3.4832
     7.3679   9.2178  13.2797  14.5375  16.6052  17.4761  18.5996  20.7132
    23.0079  24.1938  25.0568  25.8087

          k = 0.5213 0.2437-0.0003 (  1662 PWs)   bands (ev):

   -10.3524  -8.4791  -7.3714  -4.6771  -0.8665  -0.0399   3.2672   3.4480
     7.3814   9.2119  13.0816  14.3903  16.5733  17.4207  18.6999  20.9439
    23.1247  24.3913  25.0972  25.8665

          k = 0.5131 0.2580-0.0003 (  1660 PWs)   bands (ev):

   -10.3661  -8.5001  -7.3916  -4.6931  -0.7595   0.0411   3.2426   3.4231
     7.3906   9.2073  12.9367  14.2820  16.5506  17.3816  18.7729  21.1134
    23.2150  24.6336  25.1142  25.9236

          k = 0.5048 0.2723-0.0003 (  1656 PWs)   bands (ev):

   -10.3744  -8.5127  -7.4037  -4.7027  -0.6940   0.0906   3.2276   3.4082
     7.3958   9.2045  12.8485  14.2157  16.5370  17.3583  18.8173  21.2160
    23.2725  24.8780  25.1183  25.9704

          k = 0.4965 0.2867-0.0003 (  1652 PWs)   bands (ev):

   -10.3772  -8.5169  -7.4078  -4.7059  -0.6719   0.1072   3.2226   3.4033
     7.3976   9.2035  12.8188  14.1934  16.5325  17.3506  18.8322  21.2503
    23.2922  25.0000  25.1184  25.9952

          k = 0.4841 0.2795-0.0003 (  1654 PWs)   bands (ev):

   -10.3867  -8.5772  -7.3420  -4.6913  -0.6683   0.1105   3.1810   3.4088
     7.4241   9.2233  12.8207  14.1851  16.4483  17.4480  18.8190  21.2650
    23.2805  25.0054  25.0913  25.9787

          k = 0.4717 0.2723-0.0003 (  1655 PWs)   bands (ev):

   -10.4150  -8.7281  -7.1747  -4.6476  -0.6575   0.1204   3.0784   3.4054
     7.5023   9.2819  12.8263  14.1595  16.2659  17.6706  18.7804  21.3084
    23.2457  25.0108  25.0217  25.9303

          k = 0.4593 0.2652-0.0003 (  1656 PWs)   bands (ev):

   -10.4611  -8.9238  -6.9518  -4.5760  -0.6395   0.1368   2.9383   3.3753
     7.6282   9.3771  12.8355  14.1144  16.0619  17.9432  18.7189  21.3781
    23.1885  24.8792  25.0487  25.8531

          k = 0.4469 0.2580-0.0003 (  1656 PWs)   bands (ev):

   -10.5236  -9.1384  -6.6991  -4.4778  -0.6144   0.1597   2.7723   3.3155
     7.7965   9.5056  12.8482  14.0470  15.8675  18.2361  18.6384  21.4711
    23.1102  24.7000  25.0859  25.7521

          k = 0.4345 0.2508-0.0003 (  1656 PWs)   bands (ev):

   -10.6007  -9.3601  -6.4286  -4.3550  -0.5822   0.1890   2.5876   3.2283
     8.0010   9.6637  12.8641  13.9546  15.6961  18.5206  18.5594  21.5842
    23.0125  24.4775  25.1320  25.6338

          k = 0.4220 0.2437-0.0003 (  1665 PWs)   bands (ev):

   -10.6904  -9.5830  -6.1462  -4.2097  -0.5429   0.2248   2.3895   3.1179
     8.2357   9.8471  12.8827  13.8357  15.5542  18.4319  18.8429  21.7146
    22.8974  24.2165  25.1811  25.5098

          k = 0.4096 0.2365-0.0003 (  1662 PWs)   bands (ev):

   -10.7907  -9.8042  -5.8549  -4.0439  -0.4967   0.2668   2.1824   2.9888
     8.4952  10.0519  12.9031  13.6923  15.4435  18.3156  19.1408  21.8599
    22.7669  23.9222  25.2029  25.4164

          k = 0.3972 0.2293-0.0003 (  1660 PWs)   bands (ev):

   -10.8996 -10.0222  -5.5566  -3.8599  -0.4436   0.3151   1.9696   2.8449
     8.7751  10.2743  12.9231  13.5300  15.3619  18.1934  19.4283  22.0181
    22.6235  23.5993  25.1273  25.1437

          k = 0.3848 0.2222-0.0003 (  1660 PWs)   bands (ev):

   -11.0153 -10.2357  -5.2524  -3.6597  -0.3838   0.3694   1.7538   2.6902
     9.0713  10.5108  12.9361  13.3606  15.3053  18.0679  19.6983  22.1868
    22.4705  23.2523  24.8219  24.9984

          k = 0.3724 0.2150-0.0002 (  1657 PWs)   bands (ev):

   -11.1362 -10.4443  -4.9432  -3.4452  -0.3173   0.4297   1.5371   2.5276
     9.3807  10.7581  12.9178  13.2136  15.2688  17.9414  19.9430  22.2889
    22.3865  22.8857  24.4804  24.8656

          k = 0.3600 0.2078-0.0002 (  1656 PWs)   bands (ev):

   -11.2606 -10.6473  -4.6298  -3.2181  -0.2443   0.4957   1.3212   2.3599
     9.7006  11.0134  12.8147  13.1473  15.2481  17.8159  20.1534  22.1288
    22.5032  22.5686  24.1228  24.7439

          k = 0.3476 0.2007-0.0002 (  1656 PWs)   bands (ev):

   -11.3874 -10.8444  -4.3126  -2.9801  -0.1650   0.5674   1.1075   2.1891
    10.0287  11.2739  12.6402  13.1518  15.2399  17.6932  20.3201  21.9540
    22.1082  22.7708  23.7525  24.6406

          k = 0.3351 0.1935-0.0002 (  1653 PWs)   bands (ev):

   -11.5154 -11.0354  -3.9923  -2.7327  -0.0796   0.6444   0.8971   2.0170
    10.3630  11.5368  12.4424  13.1818  15.2415  17.5752  20.4347  21.7039
    21.7750  22.9840  23.3726  24.5595

          k = 0.3227 0.1863-0.0002 (  1661 PWs)   bands (ev):

   -11.6437 -11.2201  -3.6694  -2.4771   0.0117   0.6908   0.7265   1.8452
    10.7018  11.7994  12.2389  13.2215  15.2508  17.4637  20.4917  21.2929
    21.5934  22.9857  23.2077  24.4999

          k = 0.3103 0.1792-0.0002 (  1668 PWs)   bands (ev):

   -11.7714 -11.3982  -3.3445  -2.2147   0.1087   0.4893   0.8135   1.6749
    11.0434  12.0314  12.0633  13.2665  15.2665  17.3605  20.4905  20.8777
    21.4091  22.5944  23.4414  24.4564

          k = 0.2979 0.1720-0.0002 (  1669 PWs)   bands (ev):

   -11.8978 -11.5695  -3.0181  -1.9466   0.2111   0.2933   0.9051   1.5070
    11.3864  11.8343  12.3140  13.3148  15.2875  17.2677  20.4363  20.4606
    21.2214  22.2009  23.6845  24.4207

          k = 0.2855 0.1648-0.0002 (  1671 PWs)   bands (ev):

   -12.0225 -11.7340  -2.6908  -1.6740   0.1032   0.3186   1.0009   1.3424
    11.6379  11.7295  12.5597  13.3655  15.3130  17.1875  20.0434  20.3382
    21.0284  21.8073  23.9344  24.3855

          k = 0.2731 0.1577-0.0002 (  1673 PWs)   bands (ev):

   -12.1448 -11.8913  -2.3632  -1.3980  -0.0806   0.4308   1.1007   1.1818
    11.4470  12.0710  12.7939  13.4176  15.3422  17.1221  19.6279  20.2069
    20.8287  21.4153  24.1689  24.3653

          k = 0.2607 0.1505-0.0002 (  1669 PWs)   bands (ev):

   -12.2645 -12.0413  -2.0361  -1.1197  -0.2578   0.5474   1.0259   1.2039
    11.2621  12.4096  13.0135  13.4706  15.3748  17.0740  19.2159  20.0521
    20.6222  21.0267  24.2219  24.5228

          k = 0.2483 0.1433-0.0002 (  1667 PWs)   bands (ev):

   -12.3814 -12.1838  -1.7102  -0.8401  -0.4279   0.6679   0.8750   1.3102
    11.0838  12.7435  13.2157  13.5238  15.4101  17.0456  18.8088  19.8815
    20.4095  20.6432  24.1546  24.7962

          k = 0.2358 0.1362-0.0002 (  1671 PWs)   bands (ev):

   -12.4951 -12.3186  -1.3862  -0.5915  -0.5597   0.7297   0.7918   1.4190
    10.9124  13.0700  13.3990  13.5766  15.4478  17.0390  18.4081  19.7010
    20.1923  20.2662  24.0637  25.0901

          k = 0.2234 0.1290-0.0001 (  1673 PWs)   bands (ev):

   -12.6055 -12.4454  -1.0652  -0.7464  -0.2815   0.5903   0.9185   1.5299
    10.7482  13.3805  13.5676  13.6287  15.4875  17.0559  18.0151  19.5146
    19.8971  19.9728  23.9600  25.3958

          k = 0.2110 0.1218-0.0001 (  1669 PWs)   bands (ev):

   -12.7125 -12.5643  -0.8942  -0.7479  -0.0049   0.4572   1.0476   1.6422
    10.5915  13.6233  13.6778  13.7726  15.5288  17.0968  17.6312  19.3255
    19.5373  19.7533  23.8477  25.7108

          k = 0.1986 0.1147-0.0001 (  1669 PWs)   bands (ev):

   -12.8157 -12.6751  -1.0342  -0.4356   0.2682   0.3307   1.1782   1.7552
    10.4424  13.7214  13.7592  14.0529  15.5714  17.1609  17.2577  19.1361
    19.1880  19.5360  23.7299  26.0332

          k = 0.1862 0.1075-0.0001 (  1672 PWs)   bands (ev):

   -12.9149 -12.7780  -1.1663  -0.1294   0.2107   0.5370   1.3096   1.8684
    10.3011  13.7657  13.8449  14.3450  15.6149  16.8959  17.2462  18.8506
    18.9483  19.3233  23.6089  26.3609

          k = 0.1738 0.1003-0.0001 (  1674 PWs)   bands (ev):

   -13.0096 -12.8731  -1.2904   0.0978   0.1695   0.7997   1.4410   1.9808
    10.1677  13.8046  13.9051  14.6301  15.6590  16.5472  17.3495  18.5265
    18.7637  19.1172  23.4869  26.6909

          k = 0.1614 0.0932-0.0001 (  1680 PWs)   bands (ev):

   -13.0993 -12.9607  -1.4063  -0.0080   0.4596   1.0549   1.5713   2.0917
    10.0424  13.8383  13.9449  14.9043  15.7031  16.2128  17.4665  18.2167
    18.5839  18.9199  23.3654  27.0197

          k = 0.1490 0.0860-0.0001 (  1675 PWs)   bands (ev):

   -13.1836 -13.0412  -1.5139  -0.1064   0.7394   1.3013   1.6998   2.2002
     9.9252  13.8661  13.9685  15.1656  15.7469  15.8943  17.5926  17.9228
    18.4106  18.7331  23.2460  27.3425

          k = 0.1365 0.0788-0.0001 (  1679 PWs)   bands (ev):

   -13.2621 -13.1148  -1.6132  -0.1974   1.0073   1.5372   1.8251   2.3053
     9.8164  13.8875  13.9793  15.4125  15.5930  15.7899  17.6458  17.7225
    18.2456  18.5587  23.1302  27.6533

          k = 0.1241 0.0717-0.0001 (  1679 PWs)   bands (ev):

   -13.3345 -13.1817  -1.7040  -0.2809   1.2615   1.7610   1.9461   2.4062
     9.7160  13.9022  13.9808  15.3105  15.6435  15.8317  17.3872  17.8479
    18.0947  18.3982  23.0191  27.9453

          k = 0.1117 0.0645-0.0001 (  1681 PWs)   bands (ev):

   -13.4004 -13.2420  -1.7863  -0.3567   1.5002   1.9710   2.0616   2.5017
     9.6242  13.9102  13.9755  15.0482  15.8560  15.8731  17.1482  17.8971
    18.0270  18.2530  22.9141  28.2117

          k = 0.0993 0.0573-0.0001 (  1677 PWs)   bands (ev):

   -13.4598 -13.2959  -1.8602  -0.4247   1.7214   2.1654   2.1701   2.5909
     9.5411  13.9120  13.9659  14.8078  15.9089  16.0535  16.9301  17.7839
    18.1142  18.1364  22.8162  28.4464

          k = 0.0869 0.0502-0.0001 (  1679 PWs)   bands (ev):

   -13.5124 -13.3434  -1.9254  -0.4849   1.9230   2.2704   2.3424   2.6727
     9.4670  13.9082  13.9538  14.5908  15.9438  16.2295  16.7341  17.6625
    18.0097  18.2398  22.7267  28.4109

          k = 0.0745 0.0430-0.0000 (  1693 PWs)   bands (ev):

   -13.5582 -13.3845  -1.9821  -0.5372   2.1031   2.3609   2.5003   2.7460
     9.4021  13.9001  13.9407  14.3987  15.9752  16.3848  16.5614  17.5522
    17.9136  18.3428  22.6465  28.2758

          k = 0.0621 0.0358-0.0000 (  1697 PWs)   bands (ev):

   -13.5970 -13.4192  -2.0301  -0.5816   2.2596   2.4403   2.6374   2.8100
     9.3466  13.8891  13.9279  14.2331  16.0028  16.4130  16.5183  17.4559
    17.8339  18.4337  22.5768  28.1569

          k = 0.0497 0.0287-0.0000 (  1700 PWs)   bands (ev):

   -13.6288 -13.4477  -2.0694  -0.6179   2.3907   2.5074   2.7521   2.8637
     9.3007  13.8768  13.9162  14.0954  16.0261  16.2902  16.6290  17.3752
    17.7700  18.5104  22.5183  28.0564

          k = 0.0372 0.0215-0.0000 (  1703 PWs)   bands (ev):

   -13.6537 -13.4698  -2.1000  -0.6463   2.4946   2.5609   2.8429   2.9064
     9.2648  13.8649  13.9064  13.9869  16.0446  16.1937  16.7161  17.3112
    17.7214  18.5714  22.4720  27.9765

          k = 0.0248 0.0143-0.0000 (  1706 PWs)   bands (ev):

   -13.6714 -13.4856  -2.1218  -0.6665   2.5700   2.5999   2.9087   2.9374
     9.2389  13.8552  13.8991  13.9086  16.0581  16.1242  16.7788  17.2649
    17.6872  18.6157  22.4384  27.9184

          k = 0.0124 0.0072-0.0000 (  1717 PWs)   bands (ev):

   -13.6821 -13.4951  -2.1350  -0.6787   2.6156   2.6236   2.9485   2.9561
     9.2233  13.8487  13.8612  13.8945  16.0663  16.0822  16.8166  17.2368
    17.6670  18.6425  22.4180  27.8831

          k = 0.0000 0.0000 0.0000 (  1727 PWs)   bands (ev):

   -13.6856 -13.4982  -2.1393  -0.6828   2.6308   2.6316   2.9618   2.9624
     9.2181  13.8453  13.8464  13.8930  16.0682  16.0690  16.8292  17.2274
    17.6603  18.6515  22.4111  27.8713

     Writing output data file ./Gr_BN.save/

     init_run     :      0.83s CPU      0.84s WALL (       1 calls)
     electrons    :     31.31s CPU     31.42s WALL (       1 calls)

     Called by init_run:
     wfcinit      :      0.00s CPU      0.00s WALL (       1 calls)

     wfcinit:atom :      0.02s CPU      0.03s WALL (     101 calls)
     wfcinit:wfcr :      1.71s CPU      1.72s WALL (     101 calls)
     potinit      :      0.13s CPU      0.14s WALL (       1 calls)
     hinit0       :      0.67s CPU      0.67s WALL (       1 calls)

     Called by electrons:
     c_bands      :     31.31s CPU     31.42s WALL (       1 calls)
     v_of_rho     :      0.02s CPU      0.02s WALL (       1 calls)
     init_run     :      0.83s CPU      0.84s WALL (       1 calls)
     electrons    :     31.22s CPU     31.40s WALL (       1 calls)

     Called by init_run:
     wfcinit      :      0.00s CPU      0.00s WALL (       1 calls)
     wfcinit:atom :      0.02s CPU      0.03s WALL (     101 calls)
     v_h          :      0.00s CPU      0.00s WALL (       1 calls)
     v_xc         :      0.02s CPU      0.02s WALL (       1 calls)
     newd         :      0.01s CPU      0.02s WALL (       1 calls)
     PAW_pot      :      0.11s CPU      0.12s WALL (       1 calls)
     wfcinit:wfcr :      1.70s CPU      1.72s WALL (     101 calls)
     potinit      :      0.12s CPU      0.14s WALL (       1 calls)
     hinit0       :      0.67s CPU      0.67s WALL (       1 calls)


     Called by c_bands:
     init_us_2    :      0.04s CPU      0.04s WALL (     101 calls)
     cegterg      :     29.44s CPU     29.54s WALL (     153 calls)

     Called by sum_band:
     Called by electrons:
     c_bands      :     31.22s CPU     31.40s WALL (       1 calls)
     v_of_rho     :      0.02s CPU      0.02s WALL (       1 calls)
     v_h          :      0.00s CPU      0.00s WALL (       1 calls)
     v_xc         :      0.02s CPU      0.02s WALL (       1 calls)

     Called by *egterg:
     h_psi        :     17.23s CPU     17.31s WALL (    2626 calls)
     s_psi        :      1.35s CPU      1.35s WALL (    2626 calls)
     g_psi        :      0.09s CPU      0.09s WALL (    2372 calls)
     newd         :      0.01s CPU      0.02s WALL (       1 calls)
     PAW_pot      :      0.11s CPU      0.12s WALL (       1 calls)

     Called by c_bands:
     init_us_2    :      0.04s CPU      0.04s WALL (     101 calls)
     cdiaghg      :      2.17s CPU      2.17s WALL (    2473 calls)
     cegterg:over :      4.48s CPU      4.48s WALL (    2372 calls)
     cegterg:upda :      2.83s CPU      2.83s WALL (    2372 calls)
     cegterg:last :      2.38s CPU      2.38s WALL (     406 calls)
     cegterg      :     29.36s CPU     29.44s WALL (     153 calls)

     Called by sum_band:

     Called by *egterg:

     Called by h_psi:
     h_psi:calbec :      1.65s CPU      1.67s WALL (    2626 calls)
     vloc_psi     :     14.17s CPU     14.23s WALL (    2626 calls)
     add_vuspsi   :      1.35s CPU      1.36s WALL (    2626 calls)
     h_psi        :     17.22s CPU     17.29s WALL (    2626 calls)
     s_psi        :      1.34s CPU      1.35s WALL (    2626 calls)
     g_psi        :      0.09s CPU      0.09s WALL (    2372 calls)
     cdiaghg      :      2.16s CPU      2.16s WALL (    2473 calls)
     cegterg:over :      4.45s CPU      4.46s WALL (    2372 calls)

     General routines
     calbec       :      1.65s CPU      1.66s WALL (    2626 calls)
     fft          :      0.01s CPU      0.01s WALL (      12 calls)
     fftw         :     12.90s CPU     12.97s WALL (   50996 calls)
     cegterg:upda :      2.81s CPU      2.81s WALL (    2372 calls)
     cegterg:last :      2.36s CPU      2.36s WALL (     406 calls)

     Called by h_psi:
     h_psi:calbec :      1.65s CPU      1.65s WALL (    2626 calls)
     davcio       :      0.01s CPU      0.02s WALL (     202 calls)


     PAW routines
     PAW_pot      :      0.11s CPU      0.12s WALL (       1 calls)
     vloc_psi     :     14.17s CPU     14.23s WALL (    2626 calls)
     add_vuspsi   :      1.35s CPU      1.36s WALL (    2626 calls)

     General routines
     calbec       :      1.65s CPU      1.65s WALL (    2626 calls)
     fft          :      0.01s CPU      0.01s WALL (      12 calls)
     fftw         :     12.93s CPU     12.99s WALL (   50996 calls)
     davcio       :      0.02s CPU      0.10s WALL (     202 calls)


     PAW routines
     PAW_pot      :      0.11s CPU      0.12s WALL (       1 calls)

     PWSCF        :     32.75s CPU 
     PWSCF        :     32.83s CPU     33.10s WALL


   This run was terminated on:  19:33:36   4Jun2020            

    33.08s WALL

=------------------------------------------------------------------------------=
   JOB DONE.
=------------------------------------------------------------------------------=

   This run was terminated on:  19:33:36   4Jun2020            

=------------------------------------------------------------------------------=
   JOB DONE.
=------------------------------------------------------------------------------=
