
     Program PWSCF v.6.5 starts on 13May2020 at  1:29:17 

     This program is part of the open-source Quantum ESPRESSO suite
     for quantum simulation of materials; please cite
         "P. Giannozzi et al., J. Phys.:Condens. Matter 21 395502 (2009);
         "P. Giannozzi et al., J. Phys.:Condens. Matter 29 465901 (2017);
          URL http://www.quantum-espresso.org", 
     in publications or presentations arising from this work. More details at
     http://www.quantum-espresso.org/quote

     Serial version
     Reading input from relax.inp

     Current dimensions of program PWSCF are:
     Max number of different atomic species (ntypx) = 10
     Max number of k-points (npk) =  40000
     Max angular momentum in pseudopotentials (lmaxx) =  3
     Message from routine read_upf::
     Pseudo file C.pbe-n-kjpaw_psl.0.1.UPF has been fixed on the fly.
To avoid this message in the future, permanently fix 
 your pseudo files following these instructions: 
https://gitlab.com/QEF/q-e/blob/master/upftools/how_to_fix_upf.md
     Message from routine read_upf::
     Pseudo file B.pbe-n-kjpaw_psl.0.1.UPF has been fixed on the fly.
To avoid this message in the future, permanently fix 
 your pseudo files following these instructions: 
https://gitlab.com/QEF/q-e/blob/master/upftools/how_to_fix_upf.md
     Message from routine read_upf::
     Pseudo file N.pbe-n-kjpaw_psl.0.1.UPF has been fixed on the fly.
To avoid this message in the future, permanently fix 
 your pseudo files following these instructions: 
https://gitlab.com/QEF/q-e/blob/master/upftools/how_to_fix_upf.md
               file C.pbe-n-kjpaw_psl.0.1.UPF: wavefunction(s)  2P renormalized
               file B.pbe-n-kjpaw_psl.0.1.UPF: wavefunction(s)  2P renormalized
               file N.pbe-n-kjpaw_psl.0.1.UPF: wavefunction(s)  2P renormalized

     --------------------------------------------
     Parameters for DFT-D3 Dispersion Correction:
     --------------------------------------------
       Reference C6 values for interpolation: 

         atom   Coordination number   C6
         B          0.000           214.36
         B          0.971           150.74
         B          1.944           106.23
         B          2.913            62.89
         B          4.586            56.06
         C          0.000            98.23
         C          0.987            86.49
         C          1.998            58.72
         C          2.999            51.56
         C          3.984            36.41
         N          0.000            50.54
         N          0.994            44.25
         N          2.014            39.35
         N          2.990            31.16

       Values used:

         atom   Coordination number  R0_AB[au]  C6      C8
         B          7.131            3.039     56.06   2233.91
         N          7.768            2.478     31.16    687.49
         C          8.222            2.750     36.41   1053.14
         C          6.715            2.750     36.41   1053.14

         Molecular C6 ( Ry / a.u.^6 ) =       628.81


     G-vector sticks info
     --------------------
     sticks:   dense  smooth     PW     G-vecs:    dense   smooth      PW
     Sum         313     313     91                12119    12119    2031


     Title: 
     Unstrained graphene optimization. 2 atoms fragment. VC-RELAX               


     bravais-lattice index     =            4
     lattice parameter (alat)  =       4.6638  a.u.
     unit-cell volume          =     238.5022 (a.u.)^3
     number of atoms/cell      =            4
     number of atomic types    =            3
     number of electrons       =        16.00
     number of Kohn-Sham states=           12
     kinetic-energy cutoff     =      52.0000  Ry
     charge density cutoff     =     208.0000  Ry
     convergence threshold     =      1.0E-06
     mixing beta               =       0.7000
     number of iterations used =            8  plain     mixing
     Exchange-correlation= SLA PW PBX PBC
                           (   1   4   3   4   0   0   0)
     nstep                     =          200


     celldm(1)=   4.663844  celldm(2)=   0.000000  celldm(3)=   2.714749
     celldm(4)=   0.000000  celldm(5)=   0.000000  celldm(6)=   0.000000

     crystal axes: (cart. coord. in units of alat)
               a(1) = (   1.000000   0.000000   0.000000 )  
               a(2) = (  -0.500000   0.866025   0.000000 )  
               a(3) = (   0.000000   0.000000   2.714749 )  

     reciprocal axes: (cart. coord. in units 2 pi/alat)
               b(1) = (  1.000000  0.577350 -0.000000 )  
               b(2) = (  0.000000  1.154701  0.000000 )  
               b(3) = (  0.000000 -0.000000  0.368358 )  


     PseudoPot. # 1 for C  read from file:
     ./C.pbe-n-kjpaw_psl.0.1.UPF
     MD5 check sum: 430fe95172b1e11ef3f8ed03bac87931
     Pseudo is Projector augmented-wave + core cor, Zval =  4.0
     Generated using "atomic" code by A. Dal Corso v.5.0.99 svn rev. 10869
     Shape of augmentation charge: BESSEL
     Using radial grid of 1073 points,  4 beta functions with: 
                l(1) =   0
                l(2) =   0
                l(3) =   1
                l(4) =   1
     Q(r) pseudized with 0 coefficients 


     PseudoPot. # 2 for B  read from file:
     ./B.pbe-n-kjpaw_psl.0.1.UPF
     MD5 check sum: b4345a612e0782cca08559f453f3313f
     Pseudo is Projector augmented-wave + core cor, Zval =  3.0
     Generated using "atomic" code by A. Dal Corso v.5.0.99 svn rev. 10869
     Shape of augmentation charge: BESSEL
     Using radial grid of 1059 points,  4 beta functions with: 
                l(1) =   0
                l(2) =   0
                l(3) =   1
                l(4) =   1
     Q(r) pseudized with 0 coefficients 


     PseudoPot. # 3 for N  read from file:
     ./N.pbe-n-kjpaw_psl.0.1.UPF
     MD5 check sum: f73187c8b701007e77325f868c9291d7
     Pseudo is Projector augmented-wave + core cor, Zval =  5.0
     Generated using "atomic" code by A. Dal Corso v.5.0.99 svn rev. 10869
     Shape of augmentation charge: PSQ
     Using radial grid of 1085 points,  4 beta functions with: 
                l(1) =   0
                l(2) =   0
                l(3) =   1
                l(4) =   1
     Q(r) pseudized with 0 coefficients 


     atomic species   valence    mass     pseudopotential
        C              4.00    12.01100     C ( 1.00)
        B              3.00    10.81700     B ( 1.00)
        N              5.00    14.00700     N ( 1.00)

     No symmetry found


                                    s                        frac. trans.

      isym =  1     identity                                     

 cryst.   s( 1) = (     1          0          0      )
                  (     0          1          0      )
                  (     0          0          1      )

 cart.    s( 1) = (  1.0000000  0.0000000  0.0000000 )
                  (  0.0000000  1.0000000  0.0000000 )
                  (  0.0000000  0.0000000  1.0000000 )


     point group C_1 (1)    
     there are  1 classes
     the character table:

       E    
A      1.00

     the symmetry operations in each class and the name of the first element:

     E        1
          identity                                               

   Cartesian axes

     site n.     atom                  positions (alat units)
         1           B   tau(   1) = (   0.0066712   0.5813597   1.4824594  )
         2           N   tau(   2) = (   0.5066339   0.2926823   1.4822186  )
         3           C   tau(   3) = (  -0.0049921   0.0007249   1.9369010  )
         4           C   tau(   4) = (   0.0066712   0.5813597   1.9368322  )

   Crystallographic axes

     site n.     atom                  positions (cryst. coord.)
         1           B   tau(   1) = (  0.3423193  0.6712963  0.5460761  )
         2           N   tau(   2) = (  0.6756141  0.3379605  0.5459874  )
         3           C   tau(   3) = ( -0.0045735  0.0008371  0.7134734  )
         4           C   tau(   4) = (  0.3423193  0.6712963  0.7134480  )

     number of k points=    10  Methfessel-Paxton smearing, width (Ry)=  0.0200
                       cart. coord. in units 2pi/alat
        k(    1) = (   0.0000000   0.0000000   0.0000000), wk =   0.1250000
        k(    2) = (   0.0000000   0.2886751   0.0000000), wk =   0.2500000
        k(    3) = (   0.0000000  -0.5773503   0.0000000), wk =   0.1250000
        k(    4) = (   0.2500000   0.4330127   0.0000000), wk =   0.2500000
        k(    5) = (  -0.2500000   0.1443376   0.0000000), wk =   0.2500000
        k(    6) = (   0.2500000   0.1443376   0.0000000), wk =   0.2500000
        k(    7) = (   0.5000000  -0.2886751   0.0000000), wk =   0.1250000
        k(    8) = (  -0.5000000  -0.2886751   0.0000000), wk =   0.1250000
        k(    9) = (  -0.2500000   0.4330127   0.0000000), wk =   0.2500000
        k(   10) = (   0.5000000  -0.0000000   0.0000000), wk =   0.2500000

                       cryst. coord.
        k(    1) = (   0.0000000   0.0000000   0.0000000), wk =   0.1250000
        k(    2) = (   0.0000000   0.2500000   0.0000000), wk =   0.2500000
        k(    3) = (   0.0000000  -0.5000000   0.0000000), wk =   0.1250000
        k(    4) = (   0.2500000   0.2500000   0.0000000), wk =   0.2500000
        k(    5) = (  -0.2500000   0.2500000   0.0000000), wk =   0.2500000
        k(    6) = (   0.2500000   0.0000000   0.0000000), wk =   0.2500000
        k(    7) = (   0.5000000  -0.5000000   0.0000000), wk =   0.1250000
        k(    8) = (  -0.5000000   0.0000000   0.0000000), wk =   0.1250000
        k(    9) = (  -0.2500000   0.5000000   0.0000000), wk =   0.2500000
        k(   10) = (   0.5000000  -0.2500000   0.0000000), wk =   0.2500000

     Dense  grid:    12119 G-vectors     FFT dimensions: (  24,  24,  60)

     Dynamical RAM for                 wfc:       0.28 MB

     Dynamical RAM for     wfc (w. buffer):       3.04 MB

     Dynamical RAM for           str. fact:       0.55 MB

     Dynamical RAM for           local pot:       0.00 MB

     Dynamical RAM for          nlocal pot:       0.74 MB

     Dynamical RAM for                qrad:       1.48 MB

     Dynamical RAM for          rho,v,vnew:       1.35 MB

     Dynamical RAM for               rhoin:       0.45 MB

     Dynamical RAM for            rho*nmix:       2.96 MB

     Dynamical RAM for           G-vectors:       0.79 MB

     Dynamical RAM for          h,s,v(r/c):       0.11 MB

     Dynamical RAM for          <psi|beta>:       0.01 MB

     Dynamical RAM for                 psi:       1.11 MB

     Dynamical RAM for                hpsi:       1.11 MB

     Dynamical RAM for                spsi:       1.11 MB

     Dynamical RAM for      wfcinit/wfcrot:       0.74 MB

     Dynamical RAM for           addusdens:       8.32 MB

     Dynamical RAM for          addusforce:       9.90 MB

     Dynamical RAM for         addusstress:       9.25 MB

     Estimated static dynamical RAM per process >      13.41 MB

     Estimated max dynamical RAM per process >      23.30 MB

     Check: negative core charge=   -0.000045

     Initial potential from superposition of free atoms

     starting charge   15.99963, renormalised to   16.00000
     Starting wfcs are   16 randomized atomic wfcs

     total cpu time spent up to now is        2.6 secs

     Self-consistent Calculation

     iteration #  1     ecut=    52.00 Ry     beta= 0.70
     Davidson diagonalization with overlap
     ethr =  1.00E-02,  avg # of iterations =  3.7

     total cpu time spent up to now is        5.2 secs

          k = 0.0000 0.0000 0.0000     band energies (ev):

   -25.8542 -13.2303  -6.7884  -6.6328  -6.1085  -2.8900  -2.7251   1.5021
     6.4720   9.8258  10.7581  11.3216

     occupation numbers 
     1.0000   1.0000   1.0000   1.0000   1.0000   1.0000   1.0000   1.0000
    -0.0000  -0.0000  -0.0000  -0.0000

          k = 0.0000 0.2887 0.0000     band energies (ev):

   -24.3706 -13.6481 -10.9925  -9.3383  -5.5951  -2.7849  -1.0996   0.9592
     5.4105  10.5148  11.5931  12.8322

     occupation numbers 
     1.0000   1.0000   1.0000   1.0000   1.0000   1.0000   1.0000   1.0000
    -0.0000  -0.0000  -0.0000  -0.0000

          k = 0.0000-0.5774 0.0000     band energies (ev):

   -20.6148 -19.2686 -10.9175  -9.3865  -6.4768  -3.0972  -1.2916   0.4207
     3.2851  11.9786  13.4617  17.3934

     occupation numbers 
     1.0000   1.0000   1.0000   1.0000   1.0000   1.0000   1.0000   1.0000
    -0.0262  -0.0000  -0.0000  -0.0000

          k = 0.2500 0.4330 0.0000     band energies (ev):

   -21.5169 -16.5644 -14.5671  -8.9683  -4.5427  -3.6413  -1.8977   1.7836
     4.7814  11.2429  12.2709  13.9060

     occupation numbers 
     1.0000   1.0000   1.0000   1.0000   1.0000   1.0000   1.0000   1.0000
    -0.0000  -0.0000  -0.0000  -0.0000

          k =-0.2500 0.1443 0.0000     band energies (ev):

   -24.3687 -13.6462 -10.9355  -9.4061  -5.5976  -2.7321  -1.1886   0.9400
     5.4614  10.5337  11.6674  12.7908

     occupation numbers 
     1.0000   1.0000   1.0000   1.0000   1.0000   1.0000   1.0000   1.0000
    -0.0000  -0.0000  -0.0000  -0.0000

          k = 0.2500 0.1443 0.0000     band energies (ev):

   -24.3782 -13.6255 -11.1556  -9.1882  -5.5773  -2.9071  -0.8714   1.0135
     5.2688  10.7561  11.0992  12.9479

     occupation numbers 
     1.0000   1.0000   1.0000   1.0000   1.0000   1.0000   1.0000   1.0000
    -0.0000  -0.0000  -0.0000  -0.0000

          k = 0.5000-0.2887 0.0000     band energies (ev):

   -20.6016 -19.2677 -10.9700  -9.3116  -6.5188  -3.1113  -1.3604   0.4403
     3.3284  12.0202  13.4579  17.4651

     occupation numbers 
     1.0000   1.0000   1.0000   1.0000   1.0000   1.0000   1.0000   1.0000
    -0.0350  -0.0000  -0.0000  -0.0000

          k =-0.5000-0.2887 0.0000     band energies (ev):

   -20.7080 -19.1972 -10.7944  -9.6207  -6.3348  -3.0661  -1.0965   0.3371
     3.1855  11.9605  13.4876  16.9718

     occupation numbers 
     1.0000   1.0000   1.0000   1.0000   1.0000   1.0000   1.0000   1.0000
     0.0611  -0.0000  -0.0000  -0.0000

          k =-0.2500 0.4330 0.0000     band energies (ev):

   -21.4866 -16.6020 -14.5593  -8.8347  -4.9436  -3.4685  -1.8638   1.7260
     4.9422  11.1863  12.2601  13.9082

     occupation numbers 
     1.0000   1.0000   1.0000   1.0000   1.0000   1.0000   1.0000   1.0000
    -0.0000  -0.0000  -0.0000  -0.0000

          k = 0.5000-0.0000 0.0000     band energies (ev):

   -21.5118 -16.5588 -14.5792  -8.9378  -4.6389  -3.5982  -1.8935   1.7696
     4.8225  11.2863  12.2255  13.8736

     occupation numbers 
     1.0000   1.0000   1.0000   1.0000   1.0000   1.0000   1.0000   1.0000
    -0.0000  -0.0000  -0.0000  -0.0000

     the Fermi energy is     3.0102 ev

!    total energy              =     -74.95536115 Ry
     Harris-Foulkes estimate   =     -75.79947715 Ry
     estimated scf accuracy    <       1.17200152 Ry

     total all-electron energy =      -310.021713 Ry

     The total energy is the sum of the following terms:

     one-electron contribution =    -130.82761288 Ry
     hartree contribution      =      73.95239506 Ry
     xc contribution           =     -18.06944151 Ry
     ewald contribution        =      23.67059048 Ry
     DFT-D3 Dispersion         =      -0.02033375 Ry
     scf correction            =       3.34695257 Ry
     one-center paw contrib.   =     -27.00815976 Ry
      -> PAW hartree energy AE =      48.73578945 Ry
      -> PAW hartree energy PS =     -48.65450826 Ry
      -> PAW xc energy AE      =     -44.66004290 Ry
      -> PAW xc energy PS      =      17.57060195 Ry
      -> total E_H with PAW    =      74.03367625 Ry
      -> total E_XC with PAW   =     -45.15888246 Ry
     smearing contrib. (-TS)   =       0.00024863 Ry

     iteration #  2     ecut=    52.00 Ry     beta= 0.70
     Davidson diagonalization with overlap
     ethr =  7.33E-03,  avg # of iterations =  3.9

     total cpu time spent up to now is        5.6 secs

          k = 0.0000 0.0000 0.0000     band energies (ev):

   -17.5954  -8.3263  -1.5929   1.3211   2.1623   4.7650   5.0378   8.7245
    10.2827  13.0740  14.6244  15.9330

     occupation numbers 
     1.0000   1.0000   1.0000   1.0000   1.0000   1.0000   1.0000   1.0165
    -0.0000  -0.0000  -0.0000  -0.0000

          k = 0.0000 0.2887 0.0000     band energies (ev):

   -16.0776  -7.0140  -4.2959  -1.5359  -0.1418   3.8887   6.3537   8.9194
    10.7606  11.6687  13.3220  17.7708

     occupation numbers 
     1.0000   1.0000   1.0000   1.0000   1.0000   1.0000   1.0000   1.0282
    -0.0000  -0.0000  -0.0000  -0.0000

          k = 0.0000-0.5774 0.0000     band energies (ev):

   -12.0174 -11.2584  -3.3707  -3.1411  -1.7174   4.6313   5.8320   6.7373
     7.6343  15.8689  16.5100  17.4824

     occupation numbers 
     1.0000   1.0000   1.0000   1.0000   1.0000   1.0000   1.0000   1.0000
     1.0000  -0.0000  -0.0000  -0.0000

          k = 0.2500 0.4330 0.0000     band energies (ev):

   -13.1445  -7.6218  -7.3792  -3.5054   0.7123   2.3893   4.8475   9.1351
    10.7402  16.2024  16.4868  17.1563

     occupation numbers 
     1.0000   1.0000   1.0000   1.0000   1.0000   1.0000   1.0000   0.6967
    -0.0000  -0.0000  -0.0000  -0.0000

          k =-0.2500 0.1443 0.0000     band energies (ev):

   -16.0774  -7.0189  -4.2654  -1.6132  -0.1407   3.9243   6.3136   8.9148
    10.7594  11.6759  13.3050  17.5776

     occupation numbers 
     1.0000   1.0000   1.0000   1.0000   1.0000   1.0000   1.0000   1.0295
    -0.0000  -0.0000  -0.0000  -0.0000

          k = 0.2500 0.1443 0.0000     band energies (ev):

   -16.0908  -6.9994  -4.4229  -1.3509  -0.1420   3.8061   6.4897   8.9125
    10.8250  11.6169  13.3692  17.9094

     occupation numbers 
     1.0000   1.0000   1.0000   1.0000   1.0000   1.0000   1.0000   1.0301
    -0.0000  -0.0000  -0.0000  -0.0000

          k = 0.5000-0.2887 0.0000     band energies (ev):

   -11.9516 -11.3105  -3.3135  -3.1858  -1.7713   4.6457   5.8036   6.8011
     7.6115  15.9259  16.5607  17.4723

     occupation numbers 
     1.0000   1.0000   1.0000   1.0000   1.0000   1.0000   1.0000   1.0000
     1.0000  -0.0000  -0.0000  -0.0000

          k =-0.5000-0.2887 0.0000     band energies (ev):

   -12.2239 -11.0873  -3.5481  -3.0058  -1.5546   4.5582   5.9611   6.5836
     7.6376  15.9373  16.4870  17.4910

     occupation numbers 
     1.0000   1.0000   1.0000   1.0000   1.0000   1.0000   1.0000   1.0000
     1.0000  -0.0000  -0.0000  -0.0000

          k =-0.2500 0.4330 0.0000     band energies (ev):

   -13.1121  -7.9074  -7.1215  -3.4880   0.4921   2.5516   4.7951   9.3213
    10.5845  16.4734  16.8683  16.9654

     occupation numbers 
     1.0000   1.0000   1.0000   1.0000   1.0000   1.0000   1.0000   0.1619
    -0.0000  -0.0000  -0.0000  -0.0000

          k = 0.5000-0.0000 0.0000     band energies (ev):

   -13.1345  -7.6703  -7.3388  -3.4957   0.6594   2.4276   4.8336   9.1858
    10.7009  16.5886  16.7853  16.8431

     occupation numbers 
     1.0000   1.0000   1.0000   1.0000   1.0000   1.0000   1.0000   0.5453
    -0.0000  -0.0000  -0.0000  -0.0000

     the Fermi energy is     9.2004 ev

!    total energy              =     -75.06982052 Ry
     Harris-Foulkes estimate   =     -75.63130004 Ry
     estimated scf accuracy    <       1.10049385 Ry

     total all-electron energy =      -310.136173 Ry

     The total energy is the sum of the following terms:

     one-electron contribution =    -118.58066430 Ry
     hartree contribution      =      70.33193127 Ry
     xc contribution           =     -17.77000175 Ry
     ewald contribution        =      23.67059048 Ry
     DFT-D3 Dispersion         =      -0.02033375 Ry
     scf correction            =      -5.72391264 Ry
     one-center paw contrib.   =     -26.97671823 Ry
      -> PAW hartree energy AE =      50.13537228 Ry
      -> PAW hartree energy PS =     -50.05734574 Ry
      -> PAW xc energy AE      =     -45.04558198 Ry
      -> PAW xc energy PS      =      17.99083721 Ry
      -> total E_H with PAW    =      70.40995781 Ry
      -> total E_XC with PAW   =     -44.82474652 Ry
     smearing contrib. (-TS)   =      -0.00071161 Ry

     iteration #  3     ecut=    52.00 Ry     beta= 0.70
     Davidson diagonalization with overlap
     ethr =  6.88E-03,  avg # of iterations =  1.8

     total cpu time spent up to now is        6.0 secs

          k = 0.0000 0.0000 0.0000     band energies (ev):

   -21.1024 -10.3100  -3.0666  -1.4871  -1.3255   1.4663   1.7144   6.2706
     9.9607  10.4257  13.5346  14.5333

     occupation numbers 
     1.0000   1.0000   1.0000   1.0000   1.0000   1.0000   1.0000  -0.0276
    -0.0000  -0.0000  -0.0000  -0.0000

          k = 0.0000 0.2887 0.0000     band energies (ev):

   -19.6141  -9.5660  -7.0396  -4.6252  -1.6681   0.9655   3.3282   5.3964
     9.3116  11.6246  13.3541  16.4499

     occupation numbers 
     1.0000   1.0000   1.0000   1.0000   1.0000   1.0000   1.0000   1.0181
    -0.0000  -0.0000  -0.0000  -0.0000

          k = 0.0000-0.5774 0.0000     band energies (ev):

   -16.0763 -14.1351  -6.2646  -5.8683  -3.1816   2.2742   2.9526   3.3723
     5.9028  15.2143  15.8488  17.4288

     occupation numbers 
     1.0000   1.0000   1.0000   1.0000   1.0000   1.0000   1.0000   1.0000
     0.3746  -0.0000  -0.0000  -0.0000

          k = 0.2500 0.4330 0.0000     band energies (ev):

   -16.8200 -11.3278 -10.1412  -5.6601  -0.9328  -0.0598   2.4731   5.7192
     8.1361  14.6960  15.0528  16.6519

     occupation numbers 
     1.0000   1.0000   1.0000   1.0000   1.0000   1.0000   1.0000   0.8834
    -0.0000  -0.0000  -0.0000  -0.0000

          k =-0.2500 0.1443 0.0000     band energies (ev):

   -19.6118  -9.5784  -7.0031  -4.6655  -1.6659   1.0163   3.2461   5.3549
     9.3374  11.6395  13.3562  16.6429

     occupation numbers 
     1.0000   1.0000   1.0000   1.0000   1.0000   1.0000   1.0000   1.0121
    -0.0000  -0.0000  -0.0000  -0.0000

          k = 0.2500 0.1443 0.0000     band energies (ev):

   -19.6259  -9.5249  -7.1324  -4.5594  -1.6619   0.8240   3.5183   5.3818
     9.3439  11.5902  13.4232  15.7478

     occupation numbers 
     1.0000   1.0000   1.0000   1.0000   1.0000   1.0000   1.0000   1.0158
    -0.0000  -0.0000  -0.0000  -0.0000

          k = 0.5000-0.2887 0.0000     band energies (ev):

   -16.0341 -14.1802  -6.2954  -5.8155  -3.2103   2.2756   2.9206   3.3860
     5.9412  15.2121  15.8614  17.5180

     occupation numbers 
     1.0000   1.0000   1.0000   1.0000   1.0000   1.0000   1.0000   1.0000
     0.2648  -0.0000  -0.0000  -0.0000

          k =-0.5000-0.2887 0.0000     band energies (ev):

   -16.2094 -13.9786  -6.1988  -6.0610  -3.0887   2.3232   3.1595   3.2579
     5.7932  15.1364  15.8195  17.4916

     occupation numbers 
     1.0000   1.0000   1.0000   1.0000   1.0000   1.0000   1.0000   1.0000
     0.7066  -0.0000  -0.0000  -0.0000

          k =-0.2500 0.4330 0.0000     band energies (ev):

   -16.7722 -11.5713  -9.9435  -5.5795  -1.2041   0.0470   2.4890   5.6472
     8.2923  14.4707  15.0625  16.4802

     occupation numbers 
     1.0000   1.0000   1.0000   1.0000   1.0000   1.0000   1.0000   0.9872
    -0.0000  -0.0000  -0.0000  -0.0000

          k = 0.5000-0.0000 0.0000     band energies (ev):

   -16.8086 -11.3844 -10.0984  -5.6426  -0.9938  -0.0436   2.4774   5.6962
     8.1714  14.3321  15.1382  16.6032

     occupation numbers 
     1.0000   1.0000   1.0000   1.0000   1.0000   1.0000   1.0000   0.9242
    -0.0000  -0.0000  -0.0000  -0.0000

     the Fermi energy is     5.8620 ev

!    total energy              =     -75.31335824 Ry
     Harris-Foulkes estimate   =     -75.36893410 Ry
     estimated scf accuracy    <       0.11336581 Ry

     total all-electron energy =      -310.379710 Ry

     The total energy is the sum of the following terms:

     one-electron contribution =    -125.35597297 Ry
     hartree contribution      =      70.41671362 Ry
     xc contribution           =     -17.79426734 Ry
     ewald contribution        =      23.67059048 Ry
     DFT-D3 Dispersion         =      -0.02033375 Ry
     scf correction            =       0.73647100 Ry
     one-center paw contrib.   =     -26.96600657 Ry
      -> PAW hartree energy AE =      52.82012147 Ry
      -> PAW hartree energy PS =     -52.74055300 Ry
      -> PAW xc energy AE      =     -45.62616694 Ry
      -> PAW xc energy PS      =      18.58059190 Ry
      -> total E_H with PAW    =      70.49628209 Ry
      -> total E_XC with PAW   =     -44.83984239 Ry
     smearing contrib. (-TS)   =      -0.00055270 Ry

     iteration #  4     ecut=    52.00 Ry     beta= 0.70
     Davidson diagonalization with overlap
     ethr =  7.09E-04,  avg # of iterations =  5.0

     total cpu time spent up to now is        6.5 secs

          k = 0.0000 0.0000 0.0000     band energies (ev):

   -21.0475  -9.9896  -3.2636  -1.4308  -0.8908   1.3541   1.4026   6.6365
     9.7669  10.4208  13.4583  13.8182

     occupation numbers 
     1.0000   1.0000   1.0000   1.0000   1.0000   1.0000   1.0000  -0.0024
    -0.0000  -0.0000  -0.0000  -0.0000

          k = 0.0000 0.2887 0.0000     band energies (ev):

   -19.5444  -9.2375  -7.0835  -4.5406  -1.8940   1.0751   3.2794   5.5295
     9.0429  11.8422  12.9121  15.5581

     occupation numbers 
     1.0000   1.0000   1.0000   1.0000   1.0000   1.0000   1.0000   1.0170
    -0.0000  -0.0000  -0.0000  -0.0000

          k = 0.0000-0.5774 0.0000     band energies (ev):

   -15.7203 -14.3600  -6.1896  -5.5804  -3.2394   1.8948   2.9511   3.8042
     5.8362  14.9252  15.9125  17.2229

     occupation numbers 
     1.0000   1.0000   1.0000   1.0000   1.0000   1.0000   1.0000   1.0000
     0.9246  -0.0000  -0.0000  -0.0000

          k = 0.2500 0.4330 0.0000     band energies (ev):

   -16.6518 -11.2322 -10.2212  -5.4874  -1.0520   0.1785   2.4088   5.9493
     7.9947  14.6101  15.0504  15.7815

     occupation numbers 
     1.0000   1.0000   1.0000   1.0000   1.0000   1.0000   1.0000   0.6614
    -0.0000  -0.0000  -0.0000  -0.0000

          k =-0.2500 0.1443 0.0000     band energies (ev):

   -19.5408  -9.2425  -7.0407  -4.5985  -1.8896   1.1214   3.2061   5.5159
     9.0771  11.8453  12.9037  15.7104

     occupation numbers 
     1.0000   1.0000   1.0000   1.0000   1.0000   1.0000   1.0000   1.0149
    -0.0000  -0.0000  -0.0000  -0.0000

          k = 0.2500 0.1443 0.0000     band energies (ev):

   -19.5552  -9.1990  -7.1972  -4.4232  -1.9028   0.9697   3.4771   5.5602
     8.9347  11.8401  12.9789  15.3256

     occupation numbers 
     1.0000   1.0000   1.0000   1.0000   1.0000   1.0000   1.0000   1.0219
    -0.0000  -0.0000  -0.0000  -0.0000

          k = 0.5000-0.2887 0.0000     band energies (ev):

   -15.6712 -14.4024  -6.2303  -5.5168  -3.2779   1.8926   2.9026   3.8114
     5.8791  14.9526  15.9086  17.2207

     occupation numbers 
     1.0000   1.0000   1.0000   1.0000   1.0000   1.0000   1.0000   1.0000
     0.8430  -0.0000  -0.0000  -0.0000

          k =-0.5000-0.2887 0.0000     band energies (ev):

   -15.8776 -14.1986  -6.0948  -5.7616  -3.1144   1.9025   3.1150   3.7329
     5.7369  14.9297  15.9410  17.1753

     occupation numbers 
     1.0000   1.0000   1.0000   1.0000   1.0000   1.0000   1.0000   1.0000
     1.0224  -0.0000  -0.0000  -0.0000

          k =-0.2500 0.4330 0.0000     band energies (ev):

   -16.6036 -11.4348 -10.0614  -5.4072  -1.3281   0.3310   2.3850   5.9287
     8.0978  14.5579  15.0399  15.6971

     occupation numbers 
     1.0000   1.0000   1.0000   1.0000   1.0000   1.0000   1.0000   0.7198
    -0.0000  -0.0000  -0.0000  -0.0000

          k = 0.5000-0.0000 0.0000     band energies (ev):

   -16.6410 -11.2678 -10.1967  -5.4688  -1.1190   0.2150   2.4014   5.9459
     8.0174  14.6740  15.0228  15.7305

     occupation numbers 
     1.0000   1.0000   1.0000   1.0000   1.0000   1.0000   1.0000   0.6713
    -0.0000  -0.0000  -0.0000  -0.0000

     the Fermi energy is     6.0023 ev

!    total energy              =     -75.37143426 Ry
     Harris-Foulkes estimate   =     -75.37537205 Ry
     estimated scf accuracy    <       0.00700213 Ry

     total all-electron energy =      -310.437786 Ry

     The total energy is the sum of the following terms:

     one-electron contribution =    -125.74530700 Ry
     hartree contribution      =      70.94223487 Ry
     xc contribution           =     -17.83282083 Ry
     ewald contribution        =      23.67059048 Ry
     DFT-D3 Dispersion         =      -0.02033375 Ry
     scf correction            =       0.57034170 Ry
     one-center paw contrib.   =     -26.95478629 Ry
      -> PAW hartree energy AE =      55.78405965 Ry
      -> PAW hartree energy PS =     -55.70355181 Ry
      -> PAW xc energy AE      =     -46.22297651 Ry
      -> PAW xc energy PS      =      19.18768238 Ry
      -> total E_H with PAW    =      71.02274270 Ry
      -> total E_XC with PAW   =     -44.86811496 Ry
     smearing contrib. (-TS)   =      -0.00135344 Ry

     iteration #  5     ecut=    52.00 Ry     beta= 0.70
     Davidson diagonalization with overlap
     ethr =  4.38E-05,  avg # of iterations =  5.6

     total cpu time spent up to now is        7.1 secs

          k = 0.0000 0.0000 0.0000     band energies (ev):

   -20.5536  -9.6290  -2.9326  -0.9344  -0.4353   1.8384   1.9272   7.0019
     9.7387  10.6894  13.5589  14.3076

     occupation numbers 
     1.0000   1.0000   1.0000   1.0000   1.0000   1.0000   1.0000  -0.0045
    -0.0000  -0.0000  -0.0000  -0.0000

          k = 0.0000 0.2887 0.0000     band energies (ev):

   -19.0524  -8.8444  -6.6116  -4.0487  -1.5191   1.4948   3.7485   5.9604
     9.4928  11.6196  13.0813  15.9991

     occupation numbers 
     1.0000   1.0000   1.0000   1.0000   1.0000   1.0000   1.0000   1.0203
    -0.0000  -0.0000  -0.0000  -0.0000

          k = 0.0000-0.5774 0.0000     band energies (ev):

   -15.2439 -13.8574  -5.6967  -5.1868  -2.8152   2.2998   3.3985   4.1843
     6.2376  15.3853  15.9844  17.0275

     occupation numbers 
     1.0000   1.0000   1.0000   1.0000   1.0000   1.0000   1.0000   1.0000
     0.9383  -0.0000  -0.0000  -0.0000

          k = 0.2500 0.4330 0.0000     band energies (ev):

   -16.1646 -10.7544  -9.7221  -5.0880  -0.6117   0.5932   2.7377   6.3629
     8.4826  14.9438  15.0930  15.8673

     occupation numbers 
     1.0000   1.0000   1.0000   1.0000   1.0000   1.0000   1.0000   0.6516
    -0.0000  -0.0000  -0.0000  -0.0000

          k =-0.2500 0.1443 0.0000     band energies (ev):

   -19.0492  -8.8521  -6.5691  -4.1040  -1.5153   1.5424   3.6739   5.9467
     9.5282  11.6241  13.0770  16.1534

     occupation numbers 
     1.0000   1.0000   1.0000   1.0000   1.0000   1.0000   1.0000   1.0180
    -0.0000  -0.0000  -0.0000  -0.0000

          k = 0.2500 0.1443 0.0000     band energies (ev):

   -19.0625  -8.8075  -6.7216  -3.9365  -1.5246   1.3844   3.9484   5.9919
     9.3932  11.6123  13.1294  15.7582

     occupation numbers 
     1.0000   1.0000   1.0000   1.0000   1.0000   1.0000   1.0000   1.0256
    -0.0000  -0.0000  -0.0000  -0.0000

          k = 0.5000-0.2887 0.0000     band energies (ev):

   -15.1957 -13.9012  -5.7359  -5.1275  -2.8529   2.2948   3.3517   4.1914
     6.2801  15.4085  15.9790  17.0333

     occupation numbers 
     1.0000   1.0000   1.0000   1.0000   1.0000   1.0000   1.0000   1.0000
     0.8627  -0.0000  -0.0000  -0.0000

          k =-0.5000-0.2887 0.0000     band energies (ev):

   -15.4011 -13.6960  -5.6056  -5.3718  -2.6935   2.3126   3.5685   4.1062
     6.1333  15.3824  16.0038  17.0148

     occupation numbers 
     1.0000   1.0000   1.0000   1.0000   1.0000   1.0000   1.0000   1.0000
     1.0276  -0.0000  -0.0000  -0.0000

          k =-0.2500 0.4330 0.0000     band energies (ev):

   -16.1164 -10.9624  -9.5558  -5.0085  -0.8885   0.7436   2.7190   6.3423
     8.5862  14.9454  15.0641  15.7387

     occupation numbers 
     1.0000   1.0000   1.0000   1.0000   1.0000   1.0000   1.0000   0.7107
    -0.0000  -0.0000  -0.0000  -0.0000

          k = 0.5000-0.0000 0.0000     band energies (ev):

   -16.1539 -10.7932  -9.6939  -5.0693  -0.6786   0.6295   2.7311   6.3594
     8.5071  14.9901  15.0959  15.8085

     occupation numbers 
     1.0000   1.0000   1.0000   1.0000   1.0000   1.0000   1.0000   0.6618
    -0.0000  -0.0000  -0.0000  -0.0000

     the Fermi energy is     6.4125 ev

!    total energy              =     -75.37325548 Ry
     Harris-Foulkes estimate   =     -75.37368043 Ry
     estimated scf accuracy    <       0.00096644 Ry

     total all-electron energy =      -310.439608 Ry

     The total energy is the sum of the following terms:

     one-electron contribution =    -125.30272413 Ry
     hartree contribution      =      70.96715520 Ry
     xc contribution           =     -17.83193837 Ry
     ewald contribution        =      23.67059048 Ry
     DFT-D3 Dispersion         =      -0.02033375 Ry
     scf correction            =       0.09477079 Ry
     one-center paw contrib.   =     -26.94954534 Ry
      -> PAW hartree energy AE =      56.78008296 Ry
      -> PAW hartree energy PS =     -56.69941779 Ry
      -> PAW xc energy AE      =     -46.41600398 Ry
      -> PAW xc energy PS      =      19.38579347 Ry
      -> total E_H with PAW    =      71.04782037 Ry
      -> total E_XC with PAW   =     -44.86214888 Ry
     smearing contrib. (-TS)   =      -0.00123036 Ry

     iteration #  6     ecut=    52.00 Ry     beta= 0.70
     Davidson diagonalization with overlap
     ethr =  6.04E-06,  avg # of iterations =  3.1

     total cpu time spent up to now is        7.5 secs

          k = 0.0000 0.0000 0.0000     band energies (ev):

   -20.5378  -9.5969  -2.9083  -0.9163  -0.3961   1.8474   1.9126   7.0381
     9.7598  10.6939  13.5563  14.2834

     occupation numbers 
     1.0000   1.0000   1.0000   1.0000   1.0000   1.0000   1.0000  -0.0035
    -0.0000  -0.0000  -0.0000  -0.0000

          k = 0.0000 0.2887 0.0000     band energies (ev):

   -19.0357  -8.8066  -6.6039  -4.0336  -1.5025   1.5186   3.7646   5.9883
     9.4850  11.6641  13.0870  15.9927

     occupation numbers 
     1.0000   1.0000   1.0000   1.0000   1.0000   1.0000   1.0000   1.0219
    -0.0000  -0.0000  -0.0000  -0.0000

          k = 0.0000-0.5774 0.0000     band energies (ev):

   -15.2184 -13.8463  -5.6826  -5.1605  -2.8050   2.3415   3.4182   4.2124
     6.2237  15.3528  16.0462  17.0750

     occupation numbers 
     1.0000   1.0000   1.0000   1.0000   1.0000   1.0000   1.0000   1.0000
     0.9795  -0.0000  -0.0000  -0.0000

          k = 0.2500 0.4330 0.0000     band energies (ev):

   -16.1448 -10.7239  -9.7197  -5.0670  -0.6107   0.6236   2.7873   6.3871
     8.4581  14.9705  15.1444  15.8834

     occupation numbers 
     1.0000   1.0000   1.0000   1.0000   1.0000   1.0000   1.0000   0.6344
    -0.0000  -0.0000  -0.0000  -0.0000

          k =-0.2500 0.1443 0.0000     band energies (ev):

   -19.0325  -8.8144  -6.5611  -4.0898  -1.4985   1.5655   3.6911   5.9755
     9.5200  11.6687  13.0825  16.1495

     occupation numbers 
     1.0000   1.0000   1.0000   1.0000   1.0000   1.0000   1.0000   1.0197
    -0.0000  -0.0000  -0.0000  -0.0000

          k = 0.2500 0.1443 0.0000     band energies (ev):

   -19.0459  -8.7702  -6.7142  -3.9192  -1.5077   1.4100   3.9615   6.0180
     9.3868  11.6568  13.1382  15.7561

     occupation numbers 
     1.0000   1.0000   1.0000   1.0000   1.0000   1.0000   1.0000   1.0269
    -0.0000  -0.0000  -0.0000  -0.0000

          k = 0.5000-0.2887 0.0000     band energies (ev):

   -15.1693 -13.8910  -5.7225  -5.1008  -2.8435   2.3379   3.3723   4.2195
     6.2654  15.3762  16.0412  17.0809

     occupation numbers 
     1.0000   1.0000   1.0000   1.0000   1.0000   1.0000   1.0000   1.0000
     0.9236  -0.0000  -0.0000  -0.0000

          k =-0.5000-0.2887 0.0000     band energies (ev):

   -15.3765 -13.6851  -5.5903  -5.3442  -2.6813   2.3517   3.5864   4.1339
     6.1208  15.3492  16.0655  17.0612

     occupation numbers 
     1.0000   1.0000   1.0000   1.0000   1.0000   1.0000   1.0000   1.0000
     1.0342  -0.0000  -0.0000  -0.0000

          k =-0.2500 0.4330 0.0000     band energies (ev):

   -16.0965 -10.9356  -9.5494  -4.9894  -0.8855   0.7735   2.7675   6.3688
     8.5589  14.9563  15.1266  15.7613

     occupation numbers 
     1.0000   1.0000   1.0000   1.0000   1.0000   1.0000   1.0000   0.6875
    -0.0000  -0.0000  -0.0000  -0.0000

          k = 0.5000-0.0000 0.0000     band energies (ev):

   -16.1341 -10.7644  -9.6898  -5.0489  -0.6772   0.6600   2.7804   6.3842
     8.4819  15.0259  15.1401  15.8248

     occupation numbers 
     1.0000   1.0000   1.0000   1.0000   1.0000   1.0000   1.0000   0.6428
    -0.0000  -0.0000  -0.0000  -0.0000

     the Fermi energy is     6.4309 ev

!    total energy              =     -75.37344702 Ry
     Harris-Foulkes estimate   =     -75.37345574 Ry
     estimated scf accuracy    <       0.00007841 Ry

     total all-electron energy =      -310.439799 Ry

     The total energy is the sum of the following terms:

     one-electron contribution =    -125.28589052 Ry
     hartree contribution      =      71.02823977 Ry
     xc contribution           =     -17.83394828 Ry
     ewald contribution        =      23.67059048 Ry
     DFT-D3 Dispersion         =      -0.02033375 Ry
     scf correction            =       0.01554653 Ry
     one-center paw contrib.   =     -26.94656500 Ry
      -> PAW hartree energy AE =      57.40937701 Ry
      -> PAW hartree energy PS =     -57.32860598 Ry
      -> PAW xc energy AE      =     -46.54140158 Ry
      -> PAW xc energy PS      =      19.51406555 Ry
      -> total E_H with PAW    =      71.10901080 Ry
      -> total E_XC with PAW   =     -44.86128430 Ry
     smearing contrib. (-TS)   =      -0.00108627 Ry

     iteration #  7     ecut=    52.00 Ry     beta= 0.70
     Davidson diagonalization with overlap
     ethr =  4.90E-07,  avg # of iterations =  4.4

     total cpu time spent up to now is        8.1 secs

          k = 0.0000 0.0000 0.0000     band energies (ev):

   -20.4830  -9.5481  -2.8667  -0.8645  -0.3434   1.9035   1.9690   7.0759
     9.8262  10.7487  13.5771  14.3323

     occupation numbers 
     1.0000   1.0000   1.0000   1.0000   1.0000   1.0000   1.0000  -0.0039
    -0.0000  -0.0000  -0.0000  -0.0000

          k = 0.0000 0.2887 0.0000     band energies (ev):

   -18.9809  -8.7562  -6.5515  -3.9795  -1.4585   1.5695   3.8179   6.0365
     9.5376  11.7257  13.1165  16.0409

     occupation numbers 
     1.0000   1.0000   1.0000   1.0000   1.0000   1.0000   1.0000   1.0223
    -0.0000  -0.0000  -0.0000  -0.0000

          k = 0.0000-0.5774 0.0000     band energies (ev):

   -15.1646 -13.7912  -5.6281  -5.1110  -2.7542   2.3858   3.4702   4.2571
     6.2777  15.3950  16.0816  17.1269

     occupation numbers 
     1.0000   1.0000   1.0000   1.0000   1.0000   1.0000   1.0000   1.0000
     0.9700  -0.0000  -0.0000  -0.0000

          k = 0.2500 0.4330 0.0000     band energies (ev):

   -16.0904 -10.6721  -9.6629  -5.0173  -0.5610   0.6751   2.8305   6.4312
     8.5156  15.0119  15.1920  15.9368

     occupation numbers 
     1.0000   1.0000   1.0000   1.0000   1.0000   1.0000   1.0000   0.6386
    -0.0000  -0.0000  -0.0000  -0.0000

          k =-0.2500 0.1443 0.0000     band energies (ev):

   -18.9778  -8.7638  -6.5088  -4.0359  -1.4546   1.6167   3.7444   6.0237
     9.5728  11.7303  13.1120  16.1968

     occupation numbers 
     1.0000   1.0000   1.0000   1.0000   1.0000   1.0000   1.0000   1.0201
    -0.0000  -0.0000  -0.0000  -0.0000

          k = 0.2500 0.1443 0.0000     band energies (ev):

   -18.9911  -8.7203  -6.6617  -3.8647  -1.4629   1.4600   4.0151   6.0661
     9.4391  11.7183  13.1670  15.8083

     occupation numbers 
     1.0000   1.0000   1.0000   1.0000   1.0000   1.0000   1.0000   1.0273
    -0.0000  -0.0000  -0.0000  -0.0000

          k = 0.5000-0.2887 0.0000     band energies (ev):

   -15.1153 -13.8360  -5.6683  -5.0512  -2.7930   2.3822   3.4245   4.2641
     6.3197  15.4184  16.0762  17.1332

     occupation numbers 
     1.0000   1.0000   1.0000   1.0000   1.0000   1.0000   1.0000   1.0000
     0.9090  -0.0000  -0.0000  -0.0000

          k =-0.5000-0.2887 0.0000     band energies (ev):

   -15.3219 -13.6313  -5.5356  -5.2939  -2.6307   2.3960   3.6393   4.1778
     6.1742  15.3911  16.1018  17.1130

     occupation numbers 
     1.0000   1.0000   1.0000   1.0000   1.0000   1.0000   1.0000   1.0000
     1.0331  -0.0000  -0.0000  -0.0000

          k =-0.2500 0.4330 0.0000     band energies (ev):

   -16.0421 -10.8823  -9.4938  -4.9400  -0.8361   0.8249   2.8111   6.4132
     8.6163  15.0030  15.1667  15.8163

     occupation numbers 
     1.0000   1.0000   1.0000   1.0000   1.0000   1.0000   1.0000   0.6907
    -0.0000  -0.0000  -0.0000  -0.0000

          k = 0.5000-0.0000 0.0000     band energies (ev):

   -16.0796 -10.7126  -9.6330  -4.9992  -0.6278   0.7116   2.8237   6.4284
     8.5395  15.0667  15.1879  15.8790

     occupation numbers 
     1.0000   1.0000   1.0000   1.0000   1.0000   1.0000   1.0000   0.6469
    -0.0000  -0.0000  -0.0000  -0.0000

     the Fermi energy is     6.4764 ev

!    total energy              =     -75.37348824 Ry
     Harris-Foulkes estimate   =     -75.37350107 Ry
     estimated scf accuracy    <       0.00003031 Ry

     total all-electron energy =      -310.439840 Ry

     The total energy is the sum of the following terms:

     one-electron contribution =    -125.26189331 Ry
     hartree contribution      =      71.02721506 Ry
     xc contribution           =     -17.83450450 Ry
     ewald contribution        =      23.67059048 Ry
     DFT-D3 Dispersion         =      -0.02033375 Ry
     scf correction            =      -0.00683474 Ry
     one-center paw contrib.   =     -26.94662230 Ry
      -> PAW hartree energy AE =      57.40385066 Ry
      -> PAW hartree energy PS =     -57.32306962 Ry
      -> PAW xc energy AE      =     -46.54046457 Ry
      -> PAW xc energy PS      =      19.51306122 Ry
      -> total E_H with PAW    =      71.10799611 Ry
      -> total E_XC with PAW   =     -44.86190785 Ry
     smearing contrib. (-TS)   =      -0.00110518 Ry

     iteration #  8     ecut=    52.00 Ry     beta= 0.70
     Davidson diagonalization with overlap
     ethr =  1.89E-07,  avg # of iterations =  1.0

     total cpu time spent up to now is        8.4 secs

          k = 0.0000 0.0000 0.0000     band energies (ev):

   -20.4845  -9.5492  -2.8671  -0.8659  -0.3473   1.9038   1.9719   7.0746
     9.8292  10.7472  13.5779  14.3370

     occupation numbers 
     1.0000   1.0000   1.0000   1.0000   1.0000   1.0000   1.0000  -0.0040
    -0.0000  -0.0000  -0.0000  -0.0000

          k = 0.0000 0.2887 0.0000     band energies (ev):

   -18.9824  -8.7586  -6.5513  -3.9806  -1.4581   1.5684   3.8177   6.0348
     9.5392  11.7263  13.1175  16.0423

     occupation numbers 
     1.0000   1.0000   1.0000   1.0000   1.0000   1.0000   1.0000   1.0219
    -0.0000  -0.0000  -0.0000  -0.0000

          k = 0.0000-0.5774 0.0000     band energies (ev):

   -15.1662 -13.7931  -5.6292  -5.1114  -2.7531   2.3815   3.4698   4.2575
     6.2799  15.4022  16.0767  17.1263

     occupation numbers 
     1.0000   1.0000   1.0000   1.0000   1.0000   1.0000   1.0000   1.0000
     0.9682  -0.0000  -0.0000  -0.0000

          k = 0.2500 0.4330 0.0000     band energies (ev):

   -16.0920 -10.6748  -9.6633  -5.0172  -0.5584   0.6735   2.8262   6.4315
     8.5186  15.0110  15.1891  15.9386

     occupation numbers 
     1.0000   1.0000   1.0000   1.0000   1.0000   1.0000   1.0000   0.6394
    -0.0000  -0.0000  -0.0000  -0.0000

          k =-0.2500 0.1443 0.0000     band energies (ev):

   -18.9793  -8.7663  -6.5085  -4.0369  -1.4543   1.6156   3.7441   6.0218
     9.5744  11.7310  13.1130  16.1983

     occupation numbers 
     1.0000   1.0000   1.0000   1.0000   1.0000   1.0000   1.0000   1.0197
    -0.0000  -0.0000  -0.0000  -0.0000

          k = 0.2500 0.1443 0.0000     band energies (ev):

   -18.9926  -8.7226  -6.6615  -3.8661  -1.4627   1.4588   4.0152   6.0647
     9.4405  11.7189  13.1679  15.8089

     occupation numbers 
     1.0000   1.0000   1.0000   1.0000   1.0000   1.0000   1.0000   1.0270
    -0.0000  -0.0000  -0.0000  -0.0000

          k = 0.5000-0.2887 0.0000     band energies (ev):

   -15.1170 -13.8377  -5.6692  -5.0516  -2.7918   2.3777   3.4239   4.2645
     6.3218  15.4256  16.0713  17.1324

     occupation numbers 
     1.0000   1.0000   1.0000   1.0000   1.0000   1.0000   1.0000   1.0000
     0.9063  -0.0000  -0.0000  -0.0000

          k =-0.5000-0.2887 0.0000     band energies (ev):

   -15.3236 -13.6328  -5.5368  -5.2947  -2.6297   2.3919   3.6390   4.1785
     6.1762  15.3984  16.0968  17.1125

     occupation numbers 
     1.0000   1.0000   1.0000   1.0000   1.0000   1.0000   1.0000   1.0000
     1.0329  -0.0000  -0.0000  -0.0000

          k =-0.2500 0.4330 0.0000     band energies (ev):

   -16.0437 -10.8847  -9.4946  -4.9395  -0.8339   0.8236   2.8069   6.4133
     8.6195  15.0035  15.1626  15.8171

     occupation numbers 
     1.0000   1.0000   1.0000   1.0000   1.0000   1.0000   1.0000   0.6923
    -0.0000  -0.0000  -0.0000  -0.0000

          k = 0.5000-0.0000 0.0000     band energies (ev):

   -16.0812 -10.7151  -9.6336  -4.9990  -0.6252   0.7100   2.8194   6.4286
     8.5425  15.0651  15.1854  15.8807

     occupation numbers 
     1.0000   1.0000   1.0000   1.0000   1.0000   1.0000   1.0000   0.6480
    -0.0000  -0.0000  -0.0000  -0.0000

     the Fermi energy is     6.4770 ev

!    total energy              =     -75.37348851 Ry
     Harris-Foulkes estimate   =     -75.37349070 Ry
     estimated scf accuracy    <       0.00000395 Ry

     total all-electron energy =      -310.439841 Ry

     The total energy is the sum of the following terms:

     one-electron contribution =    -125.26313287 Ry
     hartree contribution      =      71.02745632 Ry
     xc contribution           =     -17.83481082 Ry
     ewald contribution        =      23.67059048 Ry
     DFT-D3 Dispersion         =      -0.02033375 Ry
     scf correction            =      -0.00564950 Ry
     one-center paw contrib.   =     -26.94649043 Ry
      -> PAW hartree energy AE =      57.43125928 Ry
      -> PAW hartree energy PS =     -57.35046594 Ry
      -> PAW xc energy AE      =     -46.54619478 Ry
      -> PAW xc energy PS      =      19.51891102 Ry
      -> total E_H with PAW    =      71.10824966 Ry
      -> total E_XC with PAW   =     -44.86209458 Ry
     smearing contrib. (-TS)   =      -0.00111796 Ry

     iteration #  9     ecut=    52.00 Ry     beta= 0.70
     Davidson diagonalization with overlap
     ethr =  2.47E-08,  avg # of iterations =  3.9

     total cpu time spent up to now is        9.0 secs

          k = 0.0000 0.0000 0.0000     band energies (ev):

   -20.4846  -9.5488  -2.8667  -0.8663  -0.3488   1.9048   1.9744   7.0735
     9.8361  10.7493  13.5791  14.3398

     occupation numbers 
     1.0000   1.0000   1.0000   1.0000   1.0000   1.0000   1.0000  -0.0041
    -0.0000  -0.0000  -0.0000  -0.0000

          k = 0.0000 0.2887 0.0000     band energies (ev):

   -18.9827  -8.7591  -6.5504  -3.9805  -1.4574   1.5685   3.8182   6.0343
     9.5410  11.7328  13.1190  16.0439

     occupation numbers 
     1.0000   1.0000   1.0000   1.0000   1.0000   1.0000   1.0000   1.0217
    -0.0000  -0.0000  -0.0000  -0.0000

          k = 0.0000-0.5774 0.0000     band energies (ev):

   -15.1668 -13.7931  -5.6290  -5.1107  -2.7520   2.3796   3.4702   4.2575
     6.2832  15.4057  16.0767  17.1308

     occupation numbers 
     1.0000   1.0000   1.0000   1.0000   1.0000   1.0000   1.0000   1.0000
     0.9648  -0.0000  -0.0000  -0.0000

          k = 0.2500 0.4330 0.0000     band energies (ev):

   -16.0924 -10.6759  -9.6624  -5.0163  -0.5564   0.6732   2.8247   6.4316
     8.5217  15.0120  15.1911  15.9425

     occupation numbers 
     1.0000   1.0000   1.0000   1.0000   1.0000   1.0000   1.0000   0.6409
    -0.0000  -0.0000  -0.0000  -0.0000

          k =-0.2500 0.1443 0.0000     band energies (ev):

   -18.9795  -8.7668  -6.5076  -4.0367  -1.4535   1.6158   3.7445   6.0213
     9.5762  11.7375  13.1145  16.2000

     occupation numbers 
     1.0000   1.0000   1.0000   1.0000   1.0000   1.0000   1.0000   1.0196
    -0.0000  -0.0000  -0.0000  -0.0000

          k = 0.2500 0.1443 0.0000     band energies (ev):

   -18.9928  -8.7229  -6.6608  -3.8661  -1.4620   1.4588   4.0160   6.0643
     9.4421  11.7254  13.1694  15.8101

     occupation numbers 
     1.0000   1.0000   1.0000   1.0000   1.0000   1.0000   1.0000   1.0268
    -0.0000  -0.0000  -0.0000  -0.0000

          k = 0.5000-0.2887 0.0000     band energies (ev):

   -15.1177 -13.8376  -5.6690  -5.0508  -2.7906   2.3757   3.4243   4.2646
     6.3252  15.4290  16.0714  17.1369

     occupation numbers 
     1.0000   1.0000   1.0000   1.0000   1.0000   1.0000   1.0000   1.0000
     0.9013  -0.0000  -0.0000  -0.0000

          k =-0.5000-0.2887 0.0000     band energies (ev):

   -15.3243 -13.6327  -5.5366  -5.2942  -2.6286   2.3901   3.6395   4.1787
     6.1795  15.4020  16.0968  17.1171

     occupation numbers 
     1.0000   1.0000   1.0000   1.0000   1.0000   1.0000   1.0000   1.0000
     1.0324  -0.0000  -0.0000  -0.0000

          k =-0.2500 0.4330 0.0000     band energies (ev):

   -16.0441 -10.8855  -9.4941  -4.9384  -0.8323   0.8236   2.8054   6.4132
     8.6228  15.0046  15.1641  15.8210

     occupation numbers 
     1.0000   1.0000   1.0000   1.0000   1.0000   1.0000   1.0000   0.6942
    -0.0000  -0.0000  -0.0000  -0.0000

          k = 0.5000-0.0000 0.0000     band energies (ev):

   -16.0816 -10.7160  -9.6329  -4.9980  -0.6233   0.7098   2.8180   6.4286
     8.5456  15.0661  15.1871  15.8847

     occupation numbers 
     1.0000   1.0000   1.0000   1.0000   1.0000   1.0000   1.0000   0.6497
    -0.0000  -0.0000  -0.0000  -0.0000

     the Fermi energy is     6.4776 ev

!    total energy              =     -75.37349133 Ry
     Harris-Foulkes estimate   =     -75.37349306 Ry
     estimated scf accuracy    <       0.00000440 Ry

     total all-electron energy =      -310.439844 Ry

     The total energy is the sum of the following terms:

     one-electron contribution =    -125.26755927 Ry
     hartree contribution      =      71.02553001 Ry
     xc contribution           =     -17.83456366 Ry
     ewald contribution        =      23.67059048 Ry
     DFT-D3 Dispersion         =      -0.02033375 Ry
     scf correction            =       0.00047390 Ry
     one-center paw contrib.   =     -26.94649798 Ry
      -> PAW hartree energy AE =      57.42432655 Ry
      -> PAW hartree energy PS =     -57.34353848 Ry
      -> PAW xc energy AE      =     -46.54481898 Ry
      -> PAW xc energy PS      =      19.51753293 Ry
      -> total E_H with PAW    =      71.10631808 Ry
      -> total E_XC with PAW   =     -44.86184971 Ry
     smearing contrib. (-TS)   =      -0.00113107 Ry

     iteration # 10     ecut=    52.00 Ry     beta= 0.70
     Davidson diagonalization with overlap
     ethr =  2.47E-08,  avg # of iterations =  1.0

     total cpu time spent up to now is        9.3 secs

     End of self-consistent calculation

          k = 0.0000 0.0000 0.0000 (  1541 PWs)   bands (ev):

   -20.4864  -9.5501  -2.8677  -0.8677  -0.3495   1.9022   1.9710   7.0729
     9.8350  10.7471  13.5781  14.3369

     occupation numbers 
     1.0000   1.0000   1.0000   1.0000   1.0000   1.0000   1.0000  -0.0041
    -0.0000  -0.0000  -0.0000  -0.0000

          k = 0.0000 0.2887 0.0000 (  1519 PWs)   bands (ev):

   -18.9844  -8.7602  -6.5524  -3.9822  -1.4587   1.5669   3.8162   6.0331
     9.5383  11.7323  13.1182  16.0417

     occupation numbers 
     1.0000   1.0000   1.0000   1.0000   1.0000   1.0000   1.0000   1.0218
    -0.0000  -0.0000  -0.0000  -0.0000

          k = 0.0000-0.5774 0.0000 (  1500 PWs)   bands (ev):

   -15.1684 -13.7947  -5.6308  -5.1125  -2.7538   2.3798   3.4684   4.2560
     6.2799  15.4028  16.0767  17.1306

     occupation numbers 
     1.0000   1.0000   1.0000   1.0000   1.0000   1.0000   1.0000   1.0000
     0.9667  -0.0000  -0.0000  -0.0000

          k = 0.2500 0.4330 0.0000 (  1499 PWs)   bands (ev):

   -16.0940 -10.6770  -9.6647  -5.0181  -0.5588   0.6720   2.8248   6.4301
     8.5180  15.0109  15.1909  15.9413

     occupation numbers 
     1.0000   1.0000   1.0000   1.0000   1.0000   1.0000   1.0000   0.6400
    -0.0000  -0.0000  -0.0000  -0.0000

          k =-0.2500 0.1443 0.0000 (  1519 PWs)   bands (ev):

   -18.9812  -8.7679  -6.5096  -4.0385  -1.4548   1.6141   3.7424   6.0201
     9.5735  11.7370  13.1137  16.1978

     occupation numbers 
     1.0000   1.0000   1.0000   1.0000   1.0000   1.0000   1.0000   1.0197
    -0.0000  -0.0000  -0.0000  -0.0000

          k = 0.2500 0.1443 0.0000 (  1519 PWs)   bands (ev):

   -18.9945  -8.7241  -6.6627  -3.8678  -1.4633   1.4573   4.0138   6.0630
     9.4396  11.7249  13.1686  15.8079

     occupation numbers 
     1.0000   1.0000   1.0000   1.0000   1.0000   1.0000   1.0000   1.0269
    -0.0000  -0.0000  -0.0000  -0.0000

          k = 0.5000-0.2887 0.0000 (  1500 PWs)   bands (ev):

   -15.1192 -13.8393  -5.6708  -5.0526  -2.7925   2.3760   3.4224   4.2631
     6.3218  15.4262  16.0713  17.1366

     occupation numbers 
     1.0000   1.0000   1.0000   1.0000   1.0000   1.0000   1.0000   1.0000
     0.9041  -0.0000  -0.0000  -0.0000

          k =-0.5000-0.2887 0.0000 (  1500 PWs)   bands (ev):

   -15.3258 -13.6344  -5.5384  -5.2959  -2.6305   2.3903   3.6376   4.1771
     6.1763  15.3991  16.0968  17.1168

     occupation numbers 
     1.0000   1.0000   1.0000   1.0000   1.0000   1.0000   1.0000   1.0000
     1.0327  -0.0000  -0.0000  -0.0000

          k =-0.2500 0.4330 0.0000 (  1499 PWs)   bands (ev):

   -16.0457 -10.8868  -9.4962  -4.9402  -0.8345   0.8221   2.8054   6.4118
     8.6190  15.0031  15.1642  15.8201

     occupation numbers 
     1.0000   1.0000   1.0000   1.0000   1.0000   1.0000   1.0000   0.6932
    -0.0000  -0.0000  -0.0000  -0.0000

          k = 0.5000-0.0000 0.0000 (  1499 PWs)   bands (ev):

   -16.0833 -10.7172  -9.6351  -4.9998  -0.6257   0.7085   2.8180   6.4271
     8.5419  15.0652  15.1868  15.8835

     occupation numbers 
     1.0000   1.0000   1.0000   1.0000   1.0000   1.0000   1.0000   0.6487
    -0.0000  -0.0000  -0.0000  -0.0000

     the Fermi energy is     6.4758 ev

!    total energy              =     -75.37349109 Ry
     Harris-Foulkes estimate   =     -75.37349162 Ry
     estimated scf accuracy    <       0.00000065 Ry

     total all-electron energy =      -310.439843 Ry

     The total energy is the sum of the following terms:

     one-electron contribution =    -125.26739081 Ry
     hartree contribution      =      71.02579457 Ry
     xc contribution           =     -17.83454366 Ry
     ewald contribution        =      23.67059048 Ry
     DFT-D3 Dispersion         =      -0.02033375 Ry
     one-center paw contrib.   =     -26.94648395 Ry
      -> PAW hartree energy AE =      57.42489167 Ry
      -> PAW hartree energy PS =     -57.34410300 Ry
      -> PAW xc energy AE      =     -46.54484070 Ry
      -> PAW xc energy PS      =      19.51756807 Ry
      -> total E_H with PAW    =      71.10658324 Ry
      -> total E_XC with PAW   =     -44.86181629 Ry
     smearing contrib. (-TS)   =      -0.00112397 Ry

     convergence has been achieved in  10 iterations

     Forces acting on atoms (cartesian axes, Ry/au):

     atom    1 type  2   force =    -0.00582813   -0.00129377   -1.32889507
     atom    2 type  3   force =    -0.00046526   -0.00130040   -0.72540037
     atom    3 type  1   force =     0.05356046    0.01827024    0.47231890
     atom    4 type  1   force =    -0.04726707   -0.01567608    1.58197654
     The non-local contrib.  to forces
     atom    1 type  2   force =     0.00620198    0.00213519   -0.98958637
     atom    2 type  3   force =     0.00386030    0.00138119   -0.35772724
     atom    3 type  1   force =     0.03198638    0.01263024   -0.28675021
     atom    4 type  1   force =    -0.02718639   -0.00971482    1.26365642
     The ionic contribution  to forces
     atom    1 type  2   force =    -0.03052654   -0.00938963  -11.90039563
     atom    2 type  3   force =    -0.04663320   -0.01180503  -15.19921195
     atom    3 type  1   force =     0.28145307    0.08606658   12.15806879
     atom    4 type  1   force =    -0.20429333   -0.06487192   14.94153879
     The local contribution  to forces
     atom    1 type  2   force =     0.01860787    0.00603351   11.50043872
     atom    2 type  3   force =     0.04228353    0.00910697   14.82509774
     atom    3 type  1   force =    -0.25846510   -0.07992080  -11.40585567
     atom    4 type  1   force =     0.18262648    0.05837656  -14.58004379
     The core correction contribution to forces
     atom    1 type  2   force =    -0.00019851   -0.00010994    0.06033691
     atom    2 type  3   force =     0.00001840   -0.00000383    0.00501881
     atom    3 type  1   force =    -0.00157518   -0.00056841    0.00566610
     atom    4 type  1   force =     0.00146537    0.00048850   -0.04446997
     The Hubbard contrib.    to forces
     atom    1 type  2   force =     0.00000000    0.00000000    0.00000000
     atom    2 type  3   force =     0.00000000    0.00000000    0.00000000
     atom    3 type  1   force =     0.00000000    0.00000000    0.00000000
     atom    4 type  1   force =     0.00000000    0.00000000    0.00000000
     The SCF correction term to forces
     atom    1 type  2   force =     0.00000526    0.00000005    0.00041380
     atom    2 type  3   force =    -0.00004844   -0.00000887    0.00092349
     atom    3 type  1   force =     0.00006411    0.00001972    0.00087850
     atom    4 type  1   force =     0.00002364    0.00000406    0.00080940

     DFT-D3 dispersion contribution to forces:
     atom    1 type  2   force =    -0.00000076   -0.00000062   -0.00040083
     atom    2 type  3   force =    -0.00002842   -0.00000850    0.00020043
     atom    3 type  1   force =     0.00001460    0.00000525    0.00001305
     atom    4 type  1   force =     0.00001458    0.00000387    0.00018735

     Total force =     2.241344     Total SCF correction =     0.001568

     DFT-D3 dispersion Force =     0.000487


     Computing stress (Cartesian axis) and pressure

          total   stress  (Ry/bohr**3)                   (kbar)     P=     1593.73
   0.00728036   0.00034038   0.00005675         1070.98       50.07        8.35
   0.00034038   0.00708019   0.00002321           50.07     1041.53        3.41
   0.00005675   0.00002321   0.01814142            8.35        3.41     2668.69

     kinetic stress (kbar)  13366.57     -2.25     -7.90
                               -2.25  13367.42     -0.09
                               -7.90     -0.09  15302.44

     local   stress (kbar) -96781.06   -241.27   -104.73
                             -241.27 -96650.57    -29.98
                             -104.73    -29.98  93639.32

     nonloc. stress (kbar)   4622.14     17.85     -0.76
                               17.85   4612.39     -0.10
                               -0.76     -0.10   4659.19

     hartree stress (kbar)  42545.83     27.11     20.46
                               27.11  42531.99      5.78
                               20.46      5.78 -41270.03

     exc-cor stress (kbar)  -1729.02      1.01      0.24
                                1.01  -1729.57      0.08
                                0.24      0.08  -1792.88

     corecor stress (kbar)  -1489.18     -1.33      0.06
                               -1.33  -1488.37     -0.00
                                0.06     -0.00  -1509.31

     ewald   stress (kbar)  40546.61    248.91    100.94
                              248.91  40409.17     27.73
                              100.94     27.73 -66356.07

     hubbard stress (kbar)      0.00      0.00      0.00
                                0.00      0.00      0.00
                                0.00      0.00      0.00

     london  stress (kbar)      0.00      0.00      0.00
                                0.00      0.00      0.00
                                0.00      0.00      0.00

     DFT-D3  stress (kbar)    -10.91      0.03      0.04
                                0.03    -10.92      0.01
                                0.04      0.01     -3.96

     XDM     stress (kbar)      0.00      0.00      0.00
                                0.00      0.00      0.00
                                0.00      0.00      0.00

     dft-nl  stress (kbar)      0.00      0.00      0.00
                                0.00      0.00      0.00
                                0.00      0.00      0.00

     TS-vdW  stress (kbar)      0.00      0.00      0.00
                                0.00      0.00      0.00
                                0.00      0.00      0.00



     BFGS Geometry Optimization

     number of scf cycles    =   1
     number of bfgs steps    =   0

     enthalpy new            =     -75.3734910935 Ry

     new trust radius        =       0.5000000000 bohr
     new conv_thr            =       0.0000010000 Ry

     new unit-cell volume =    304.47279 a.u.^3 (    45.11821 Ang^3 )
     density =      1.79774 g/cm^3

CELL_PARAMETERS (alat=  4.66384410)
   1.057497333   0.002688184   0.000448179
  -0.526420630   0.913106401  -0.000065357
   0.001216693   0.000497581   3.103700694

ATOMIC_POSITIONS (crystal)
B             0.3418739713        0.6711951144        0.5129193541
N             0.6755317407        0.3378587437        0.5278882086
C            -0.0002311440        0.0022660604        0.7252580397
C             0.3385046756        0.6700702272        0.7529193116



     Writing output data file ./Gr_BN.save/
     NEW-OLD atomic charge density approx. for the potential

     Check: negative core charge=   -0.000048
     extrapolated charge   19.46666, renormalised to   16.00000

     total cpu time spent up to now is       18.1 secs

     Self-consistent Calculation

     iteration #  1     ecut=    52.00 Ry     beta= 0.70
     Davidson diagonalization with overlap
     ethr =  1.00E-06,  avg # of iterations = 16.8

     total cpu time spent up to now is       20.9 secs

          k = 0.0000 0.0000 0.0000     band energies (ev):

   -17.7754  -9.0380  -2.1796   2.7622   8.0134  11.5327  11.5489  11.7372
    11.7422  11.8354  11.8516  16.4738

     occupation numbers 
     1.0000   1.0000   1.0000   1.0000   1.0000  -0.0000  -0.0000  -0.0000
    -0.0000  -0.0000  -0.0000  -0.0000

          k =-0.0007 0.2734-0.0000     band energies (ev):

   -15.9300  -7.2012  -1.1802  -0.4099   4.3534   6.0864   6.2156   7.5057
     9.5098  13.4024  14.7907  14.9468

     occupation numbers 
     1.0000   1.0000   1.0000   1.0000   1.0000   1.0000   1.0000   1.0000
     0.0258  -0.0000  -0.0000  -0.0000

          k = 0.0014-0.5468 0.0001     band energies (ev):

   -10.4344 -10.3536  -1.9081  -1.4792   4.0999   4.3050   4.4818   5.2988
     8.9718   9.7204  12.8017  12.9922

     occupation numbers 
     1.0000   1.0000   1.0000   1.0000   1.0000   1.0000   1.0000   1.0000
     1.0354  -0.0269  -0.0000  -0.0000

          k = 0.2354 0.4095-0.0002     band energies (ev):

   -12.2680  -4.9352  -4.8083  -3.5601   2.8915   3.6105   4.1347   7.2853
     9.6775  10.8973  12.2441  14.3546

     occupation numbers 
     1.0000   1.0000   1.0000   1.0000   1.0000   1.0000   1.0000   1.0000
    -0.0331  -0.0000  -0.0000  -0.0000

          k =-0.2368 0.1373 0.0001     band energies (ev):

   -15.9261  -7.1972  -1.1451  -0.4053   4.3566   6.0587   6.1561   7.5406
     9.5140  13.4244  14.7616  14.9032

     occupation numbers 
     1.0000   1.0000   1.0000   1.0000   1.0000   1.0000   1.0000   1.0000
     0.0212  -0.0000  -0.0000  -0.0000

          k = 0.2361 0.1361-0.0001     band energies (ev):

   -15.9423  -7.2134  -1.2884  -0.4238   4.3425   6.2693   6.3011   7.3984
     9.4982  13.3377  14.9503  15.0122

     occupation numbers 
     1.0000   1.0000   1.0000   1.0000   1.0000   1.0000   1.0000   1.0000
     0.0398  -0.0000  -0.0000  -0.0000

          k = 0.4735-0.2746-0.0001     band energies (ev):

   -10.4185 -10.3376  -1.8934  -1.4622   4.0808   4.2571   4.4625   5.3194
     8.9794   9.7394  12.7704  12.9454

     occupation numbers 
     1.0000   1.0000   1.0000   1.0000   1.0000   1.0000   1.0000   1.0000
     1.0354  -0.0236  -0.0000  -0.0000

          k =-0.4721-0.2722 0.0002     band energies (ev):

   -10.4844 -10.4016  -1.9544  -1.5306   4.1299   4.4526   4.5643   5.2369
     8.9613   9.6597  12.8953  13.1361

     occupation numbers 
     1.0000   1.0000   1.0000   1.0000   1.0000   1.0000   1.0000   1.0000
     1.0351  -0.0348  -0.0000  -0.0000

          k =-0.2375 0.4107 0.0000     band energies (ev):

   -12.2193  -4.9322  -4.8435  -3.5122   2.9309   3.6039   4.1121   7.3224
     9.6904  10.8587  12.2630  14.3907

     occupation numbers 
     1.0000   1.0000   1.0000   1.0000   1.0000   1.0000   1.0000   1.0000
    -0.0315  -0.0000  -0.0000  -0.0000

          k = 0.4728-0.0012-0.0002     band energies (ev):

   -12.2561  -4.9521  -4.7993  -3.5484   2.8998   3.6062   4.1332   7.2928
     9.6827  10.8906  12.2456  14.3652

     occupation numbers 
     1.0000   1.0000   1.0000   1.0000   1.0000   1.0000   1.0000   1.0000
    -0.0325  -0.0000  -0.0000  -0.0000

     the Fermi energy is     9.3074 ev

!    total energy              =      97.70954844 Ry
     Harris-Foulkes estimate   =     -74.32057147 Ry
     estimated scf accuracy    <     178.86834156 Ry

     total all-electron energy =      -137.356804 Ry

     The total energy is the sum of the following terms:

     one-electron contribution =     107.45548123 Ry
     hartree contribution      =       3.68537053 Ry
     xc contribution           =     -13.01751913 Ry
     ewald contribution        =      13.80620248 Ry
     DFT-D3 Dispersion         =      -0.01787471 Ry
     scf correction            =      12.16851255 Ry
     one-center paw contrib.   =     -26.37247097 Ry
      -> PAW hartree energy AE =       8.22740161 Ry
      -> PAW hartree energy PS =      -8.22004178 Ry
      -> PAW xc energy AE      =     -33.29319140 Ry
      -> PAW xc energy PS      =       6.91336061 Ry
      -> total E_H with PAW    =       3.69273036 Ry
      -> total E_XC with PAW   =     -39.39734993 Ry
     smearing contrib. (-TS)   =       0.00184647 Ry

     iteration #  2     ecut=    52.00 Ry     beta= 0.70
     Davidson diagonalization with overlap
     ethr =  1.00E-02,  avg # of iterations = 14.8

     total cpu time spent up to now is       22.3 secs

          k = 0.0000 0.0000 0.0000     band energies (ev):

  -166.2274-153.0195-142.5085-142.4794-139.4000-136.9654-136.5538-132.5778
  -122.2165-121.1953-112.8821-108.3765

     occupation numbers 
     1.0000   1.0000   1.0000   1.0000   1.0000   1.0000   1.0000   1.0000
    -0.0000  -0.0000  -0.0000  -0.0000

          k =-0.0007 0.2734-0.0000     band energies (ev):

  -165.0133-154.2570-146.6666-144.0874-141.5710-135.3565-132.4673-129.4269
  -122.4763-121.5241-118.0389-107.4303

     occupation numbers 
     1.0000   1.0000   1.0000   1.0000   1.0000   1.0000   1.0000   1.0000
    -0.0000  -0.0000  -0.0000  -0.0000

          k = 0.0014-0.5468 0.0001     band energies (ev):

  -163.1407-156.6877-149.0465-145.0646-141.2914-135.3668-133.4311-125.3576
  -123.6448-119.1714-115.9042-109.1780

     occupation numbers 
     1.0000   1.0000   1.0000   1.0000   1.0000   1.0000   1.0000   0.9934
    -0.0000  -0.0000  -0.0000  -0.0000

          k = 0.2354 0.4095-0.0002     band energies (ev):

  -163.2715-155.3959-151.9672-142.6588-140.7871-137.9549-130.6771-126.6699
  -122.5398-120.2970-117.1528-114.7423

     occupation numbers 
     1.0000   1.0000   1.0000   1.0000   1.0000   1.0000   1.0000   1.0000
    -0.0000  -0.0000  -0.0000  -0.0000

          k =-0.2368 0.1373 0.0001     band energies (ev):

  -165.0111-154.2828-146.5910-144.1975-141.6141-135.9650-132.4907-129.4212
  -122.4661-121.5879-118.3178-118.0959

     occupation numbers 
     1.0000   1.0000   1.0000   1.0000   1.0000   1.0000   1.0000   1.0000
    -0.0000  -0.0000  -0.0000  -0.0000

          k = 0.2361 0.1361-0.0001     band energies (ev):

  -165.0377-154.2329-146.8364-144.1324-141.5277-135.7344-132.4838-129.5111
  -122.6888-121.5718-118.2788-117.7964

     occupation numbers 
     1.0000   1.0000   1.0000   1.0000   1.0000   1.0000   1.0000   1.0000
    -0.0000  -0.0000  -0.0000  -0.0000

          k = 0.4735-0.2746-0.0001     band energies (ev):

  -163.1224-156.7239-148.9712-145.2231-141.3051-135.3919-133.4827-125.3665
  -123.6159-119.1706-115.9266-109.0442

     occupation numbers 
     1.0000   1.0000   1.0000   1.0000   1.0000   1.0000   1.0000   1.0010
    -0.0000  -0.0000  -0.0000  -0.0000

          k =-0.4721-0.2722 0.0002     band energies (ev):

  -163.1936-156.6099-149.1948-145.2714-141.2738-135.4896-133.3780-125.3727
  -123.7916-119.3067-115.7755-110.6633

     occupation numbers 
     1.0000   1.0000   1.0000   1.0000   1.0000   1.0000   1.0000   1.0056
    -0.0000  -0.0000  -0.0000  -0.0000

          k =-0.2375 0.4107 0.0000     band energies (ev):

  -163.2412-155.5500-151.7939-142.6400-140.7993-138.1037-130.8254-126.5412
  -122.5153-120.4891-117.2431-114.5659

     occupation numbers 
     1.0000   1.0000   1.0000   1.0000   1.0000   1.0000   1.0000   1.0000
    -0.0000  -0.0000  -0.0000  -0.0000

          k = 0.4728-0.0012-0.0002     band energies (ev):

  -163.2673-155.4432-151.9100-142.6402-140.7883-138.0023-130.7192-126.6207
  -122.5153-120.2718-117.0406-114.4378

     occupation numbers 
     1.0000   1.0000   1.0000   1.0000   1.0000   1.0000   1.0000   1.0000
    -0.0000  -0.0000  -0.0000  -0.0000

     the Fermi energy is  -125.1362 ev

!    total energy              =    -104.87375637 Ry
     Harris-Foulkes estimate   =    -183.50690833 Ry
     estimated scf accuracy    <     135.52268675 Ry

     total all-electron energy =      -339.940109 Ry

     The total energy is the sum of the following terms:

     one-electron contribution =    -128.87852409 Ry
     hartree contribution      =      10.81029514 Ry
     xc contribution           =     -14.07772038 Ry
     ewald contribution        =      13.80620248 Ry
     DFT-D3 Dispersion         =      -0.01787471 Ry
     scf correction            =      40.08975616 Ry
     one-center paw contrib.   =     -26.60610882 Ry
      -> PAW hartree energy AE =      16.87111520 Ry
      -> PAW hartree energy PS =     -16.84762896 Ry
      -> PAW xc energy AE      =     -36.35747527 Ry
      -> PAW xc energy PS      =       9.72788020 Ry
      -> total E_H with PAW    =      10.83378138 Ry
      -> total E_XC with PAW   =     -40.70731545 Ry
     smearing contrib. (-TS)   =       0.00021785 Ry

     iteration #  3     ecut=    52.00 Ry     beta= 0.70
     Davidson diagonalization with overlap
     ethr =  1.00E-02,  avg # of iterations =  4.4

     total cpu time spent up to now is       23.0 secs

          k = 0.0000 0.0000 0.0000     band energies (ev):

   -89.9523 -80.5964 -70.9555 -70.5004 -70.1488 -70.1421 -64.8860 -64.4747
   -62.9266 -58.3385 -53.4910 -42.0129

     occupation numbers 
     1.0000   1.0000   1.0000   1.0000   1.0000   1.0000   1.0000   1.0000
     1.0312  -0.0000  -0.0000  -0.0000

          k =-0.0007 0.2734-0.0000     band energies (ev):

   -88.5411 -80.5482 -75.9510 -73.2838 -71.5417 -69.5488 -64.8749 -63.4951
   -61.8948 -55.9444 -53.4174 -50.0951

     occupation numbers 
     1.0000   1.0000   1.0000   1.0000   1.0000   1.0000   1.0000   1.0000
    -0.0020  -0.0000  -0.0000  -0.0000

          k = 0.0014-0.5468 0.0001     band energies (ev):

   -85.1683 -83.7255 -77.5373 -74.5456 -73.1615 -69.9618 -66.2759 -62.5711
   -60.7453 -54.9321 -48.5125 -47.7808

     occupation numbers 
     1.0000   1.0000   1.0000   1.0000   1.0000   1.0000   1.0000   0.5917
    -0.0000  -0.0000  -0.0000  -0.0000

          k = 0.2354 0.4095-0.0002     band energies (ev):

   -85.8967 -81.7468 -79.3573 -74.9810 -71.9579 -71.2812 -63.2036 -62.7669
   -61.7294 -53.8244 -51.4024 -47.8903

     occupation numbers 
     1.0000   1.0000   1.0000   1.0000   1.0000   1.0000   1.0015   0.9970
    -0.0001  -0.0000  -0.0000  -0.0000

          k =-0.2368 0.1373 0.0001     band energies (ev):

   -88.5382 -80.5499 -75.8919 -73.3955 -71.5394 -69.6148 -64.9117 -63.4870
   -61.8726 -55.9690 -54.0213 -53.2415

     occupation numbers 
     1.0000   1.0000   1.0000   1.0000   1.0000   1.0000   1.0000   1.0000
    -0.0014  -0.0000  -0.0000  -0.0000

          k = 0.2361 0.1361-0.0001     band energies (ev):

   -88.5521 -80.5630 -76.0668 -73.2136 -71.5440 -69.5002 -64.8556 -63.5048
   -61.8772 -55.8968 -54.0537 -53.1747

     occupation numbers 
     1.0000   1.0000   1.0000   1.0000   1.0000   1.0000   1.0000   1.0000
    -0.0015  -0.0000  -0.0000  -0.0000

          k = 0.4735-0.2746-0.0001     band energies (ev):

   -85.1565 -83.7178 -77.5011 -74.6126 -73.1698 -69.9998 -66.3209 -62.5410
   -60.8071 -54.9871 -48.5262 -48.0990

     occupation numbers 
     1.0000   1.0000   1.0000   1.0000   1.0000   1.0000   1.0000   0.4988
    -0.0000  -0.0000  -0.0000  -0.0000

          k =-0.4721-0.2722 0.0002     band energies (ev):

   -85.2097 -83.7503 -77.5941 -74.4373 -73.1624 -69.8290 -66.1897 -62.6372
   -60.7023 -54.9221 -48.9034 -47.7236

     occupation numbers 
     1.0000   1.0000   1.0000   1.0000   1.0000   1.0000   1.0000   0.7785
    -0.0000  -0.0000  -0.0000  -0.0000

          k =-0.2375 0.4107 0.0000     band energies (ev):

   -85.8577 -81.7788 -79.3017 -74.9940 -72.0785 -71.2525 -63.1759 -62.8725
   -61.7429 -53.9141 -51.8248 -48.1004

     occupation numbers 
     1.0000   1.0000   1.0000   1.0000   1.0000   1.0000   1.0024   1.0354
    -0.0001  -0.0000  -0.0000  -0.0000

          k = 0.4728-0.0012-0.0002     band energies (ev):

   -85.8873 -81.7574 -79.3393 -74.9846 -71.9956 -71.2705 -63.1940 -62.7957
   -61.7523 -53.8610 -51.5154 -47.9801

     occupation numbers 
     1.0000   1.0000   1.0000   1.0000   1.0000   1.0000   1.0018   1.0169
    -0.0002  -0.0000  -0.0000  -0.0000

     the Fermi energy is   -62.5414 ev

!    total energy              =     -90.79488095 Ry
     Harris-Foulkes estimate   =    -108.20519099 Ry
     estimated scf accuracy    <      41.18928485 Ry

     total all-electron energy =      -325.861233 Ry

     The total energy is the sum of the following terms:

     one-electron contribution =    -125.55484386 Ry
     hartree contribution      =      22.28125090 Ry
     xc contribution           =     -14.85856249 Ry
     ewald contribution        =      13.80620248 Ry
     DFT-D3 Dispersion         =      -0.01787471 Ry
     scf correction            =      40.29058254 Ry
     one-center paw contrib.   =     -26.74166369 Ry
      -> PAW hartree energy AE =      24.79756290 Ry
      -> PAW hartree energy PS =     -24.75973331 Ry
      -> PAW xc energy AE      =     -38.55651681 Ry
      -> PAW xc energy PS      =      11.77702352 Ry
      -> total E_H with PAW    =      22.31908050 Ry
      -> total E_XC with PAW   =     -41.63805579 Ry
     smearing contrib. (-TS)   =       0.00002789 Ry

     iteration #  4     ecut=    52.00 Ry     beta= 0.70
     Davidson diagonalization with overlap
     ethr =  1.00E-02,  avg # of iterations =  3.0

     total cpu time spent up to now is       23.4 secs

          k = 0.0000 0.0000 0.0000     band energies (ev):

   -64.8953 -56.4668 -46.6075 -46.4850 -45.3413 -44.8798 -43.3742 -40.1402
   -37.9555 -33.4797 -31.2983 -18.1428

     occupation numbers 
     1.0000   1.0000   1.0000   1.0000   1.0000   1.0000   1.0000   1.0000
    -0.0021  -0.0000  -0.0000  -0.0000

          k =-0.0007 0.2734-0.0000     band energies (ev):

   -63.5044 -56.0220 -51.2500 -48.7819 -47.5065 -45.4224 -42.2211 -40.5364
   -37.7595 -31.5697 -30.4930 -28.3354

     occupation numbers 
     1.0000   1.0000   1.0000   1.0000   1.0000   1.0000   1.0000   1.0000
    -0.0001  -0.0000  -0.0000  -0.0000

          k = 0.0014-0.5468 0.0001     band energies (ev):

   -60.3360 -58.4440 -52.6739 -50.0687 -50.0213 -46.1153 -42.0395 -40.3364
   -37.8668 -31.0939 -28.0166 -24.2300

     occupation numbers 
     1.0000   1.0000   1.0000   1.0000   1.0000   1.0000   1.0000   1.0000
    -0.0005  -0.0000  -0.0000  -0.0000

          k = 0.2354 0.4095-0.0002     band energies (ev):

   -60.9454 -56.7152 -54.0848 -51.1278 -48.1606 -47.9397 -40.8932 -38.8010
   -37.9092 -29.0137 -28.1309 -25.5222

     occupation numbers 
     1.0000   1.0000   1.0000   1.0000   1.0000   1.0000   1.0000   0.9761
    -0.0010  -0.0000  -0.0000  -0.0000

          k =-0.2368 0.1373 0.0001     band energies (ev):

   -63.4916 -56.0114 -51.1937 -48.7578 -47.4902 -45.3502 -42.2279 -40.5171
   -37.7288 -31.5482 -30.7299 -30.0957

     occupation numbers 
     1.0000   1.0000   1.0000   1.0000   1.0000   1.0000   1.0000   1.0000
    -0.0000  -0.0000  -0.0000  -0.0000

          k = 0.2361 0.1361-0.0001     band energies (ev):

   -63.5065 -56.0230 -51.3205 -48.6280 -47.5494 -45.1894 -42.2475 -40.4465
   -37.7169 -31.4232 -30.7800 -30.0837

     occupation numbers 
     1.0000   1.0000   1.0000   1.0000   1.0000   1.0000   1.0000   1.0000
    -0.0000  -0.0000  -0.0000  -0.0000

          k = 0.4735-0.2746-0.0001     band energies (ev):

   -60.3217 -58.4533 -52.6307 -50.1020 -50.0134 -46.1835 -42.0766 -40.3099
   -37.9756 -31.1450 -28.1185 -24.1316

     occupation numbers 
     1.0000   1.0000   1.0000   1.0000   1.0000   1.0000   1.0000   1.0000
    -0.0029  -0.0000  -0.0000  -0.0000

          k =-0.4721-0.2722 0.0002     band energies (ev):

   -60.3890 -58.4516 -52.7487 -50.0423 -49.9207 -45.9978 -41.9324 -40.4345
   -37.7942 -31.0869 -28.6000 -24.2634

     occupation numbers 
     1.0000   1.0000   1.0000   1.0000   1.0000   1.0000   1.0000   1.0000
    -0.0001  -0.0000  -0.0000  -0.0000

          k =-0.2375 0.4107 0.0000     band energies (ev):

   -60.9033 -56.7568 -54.0212 -51.1179 -48.2101 -47.9171 -40.8687 -38.8781
   -37.9560 -29.0995 -28.6695 -25.8742

     occupation numbers 
     1.0000   1.0000   1.0000   1.0000   1.0000   1.0000   1.0000   1.0283
    -0.0022  -0.0000  -0.0000  -0.0000

          k = 0.4728-0.0012-0.0002     band energies (ev):

   -60.9329 -56.7278 -54.0589 -51.1199 -48.1336 -47.9189 -40.8847 -38.8299
   -37.9224 -29.0133 -28.4024 -25.7654

     occupation numbers 
     1.0000   1.0000   1.0000   1.0000   1.0000   1.0000   1.0000   1.0030
    -0.0013  -0.0000  -0.0000  -0.0000

     the Fermi energy is   -38.5969 ev

!    total energy              =     -84.53620039 Ry
     Harris-Foulkes estimate   =     -91.18840264 Ry
     estimated scf accuracy    <      20.53827637 Ry

     total all-electron energy =      -319.602553 Ry

     The total energy is the sum of the following terms:

     one-electron contribution =    -123.29090986 Ry
     hartree contribution      =      30.20313762 Ry
     xc contribution           =     -15.25399290 Ry
     ewald contribution        =      13.80620248 Ry
     DFT-D3 Dispersion         =      -0.01787471 Ry
     scf correction            =      36.79484825 Ry
     one-center paw contrib.   =     -26.77819166 Ry
      -> PAW hartree energy AE =      30.01651560 Ry
      -> PAW hartree energy PS =     -29.97199747 Ry
      -> PAW xc energy AE      =     -39.81032785 Ry
      -> PAW xc energy PS      =      12.98761806 Ry
      -> total E_H with PAW    =      30.24765575 Ry
      -> total E_XC with PAW   =     -42.07670269 Ry
     smearing contrib. (-TS)   =       0.00058039 Ry

     iteration #  5     ecut=    52.00 Ry     beta= 0.70
     Davidson diagonalization with overlap
[...]
    11.1334  12.7856  13.2704  13.5715

     occupation numbers 
     1.0000   1.0000   1.0000   1.0000   1.0000   1.0000   1.0000   1.0000
    -0.0000  -0.0000  -0.0000  -0.0000

          k = 0.4967-0.2868-0.0016     band energies (ev):

   -10.3440  -8.4860  -7.3801  -4.6738  -0.6402   0.1425   3.2537   3.4385
     7.4363   9.2455  12.8672  14.2436

     occupation numbers 
     1.0000   1.0000   1.0000   1.0000   1.0000   1.0000   1.0000   1.0000
    -0.0000  -0.0000  -0.0000  -0.0000

          k =-0.4968-0.2868 0.0027     band energies (ev):

   -10.3439  -8.4858  -7.3804  -4.6738  -0.6401   0.1424   3.2630   3.4290
     7.4361   9.2457  12.8672  14.2444

     occupation numbers 
     1.0000   1.0000   1.0000   1.0000   1.0000   1.0000   1.0000   1.0000
    -0.0000  -0.0000  -0.0000  -0.0000

          k =-0.2484 0.4302 0.0002     band energies (ev):

   -10.4717  -9.4019  -4.7647  -3.3734  -3.1236  -1.6112   2.6870   3.4916
     8.4398  10.2133  14.7100  17.1103

     occupation numbers 
     1.0000   1.0000   1.0000   1.0000   1.0000   1.0000   1.0000   1.0000
    -0.0000  -0.0000  -0.0000  -0.0000

          k = 0.4968 0.0000-0.0022     band energies (ev):

   -10.4716  -9.4018  -4.7651  -3.3733  -3.1233  -1.6113   2.6879   3.4907
     8.4383  10.2148  14.7123  17.1183

     occupation numbers 
     1.0000   1.0000   1.0000   1.0000   1.0000   1.0000   1.0000   1.0000
    -0.0000  -0.0000  -0.0000  -0.0000

     the Fermi energy is     5.7134 ev

!    total energy              =     -76.77752735 Ry
     Harris-Foulkes estimate   =     -76.77752737 Ry
     estimated scf accuracy    <       0.00000005 Ry

     total all-electron energy =      -311.843880 Ry

     The total energy is the sum of the following terms:

     one-electron contribution =     -19.69671273 Ry
     hartree contribution      =      17.87143346 Ry
     xc contribution           =     -16.71406025 Ry
     ewald contribution        =     -31.34265286 Ry
     DFT-D3 Dispersion         =      -0.02337261 Ry
     scf correction            =       0.00029255 Ry
     one-center paw contrib.   =     -26.87245491 Ry
      -> PAW hartree energy AE =      46.64613591 Ry
      -> PAW hartree energy PS =     -46.58234654 Ry
      -> PAW xc energy AE      =     -43.91565424 Ry
      -> PAW xc energy PS      =      16.97940995 Ry
      -> total E_H with PAW    =      17.93522283 Ry
      -> total E_XC with PAW   =     -43.65030454 Ry
     smearing contrib. (-TS)   =       0.00000000 Ry

     iteration # 11     ecut=    52.00 Ry     beta= 0.70
     Davidson diagonalization with overlap
     ethr =  3.05E-10,  avg # of iterations =  3.7

     total cpu time spent up to now is      444.2 secs

          k = 0.0000 0.0000 0.0000     band energies (ev):

   -13.6611 -13.4682  -2.1190  -0.6435   2.6665   2.6670   3.0011   3.0015
     9.2670  13.8894  13.8902  13.9713

     occupation numbers 
     1.0000   1.0000   1.0000   1.0000   1.0000   1.0000   1.0000   1.0000
    -0.0000  -0.0000  -0.0000  -0.0000

          k = 0.0000 0.2868-0.0006     band energies (ev):

   -12.3522 -12.1560  -1.6769  -0.8037  -0.4054   0.7006   0.9151   1.3472
    11.1328  12.7870  13.2689  13.5711

     occupation numbers 
     1.0000   1.0000   1.0000   1.0000   1.0000   1.0000   1.0000   1.0000
    -0.0000  -0.0000  -0.0000  -0.0000

          k =-0.0000-0.5736 0.0011     band energies (ev):

   -10.3437  -8.4863  -7.3802  -4.6737  -0.6406   0.1427   3.2556   3.4365
     7.4365   9.2455  12.8669  14.2435

     occupation numbers 
     1.0000   1.0000   1.0000   1.0000   1.0000   1.0000   1.0000   1.0000
    -0.0000  -0.0000  -0.0000  -0.0000

          k = 0.2484 0.4302-0.0019     band energies (ev):

   -10.4714  -9.4021  -4.7653  -3.3733  -3.1236  -1.6111   2.6879   3.4910
     8.4379  10.2150  14.7119  17.1204

     occupation numbers 
     1.0000   1.0000   1.0000   1.0000   1.0000   1.0000   1.0000   1.0000
    -0.0000  -0.0000  -0.0000  -0.0000

          k =-0.2484 0.1434 0.0008     band energies (ev):

   -12.3522 -12.1561  -1.6770  -0.8036  -0.4054   0.7007   0.9150   1.3470
    11.1330  12.7873  13.2684  13.5713

     occupation numbers 
     1.0000   1.0000   1.0000   1.0000   1.0000   1.0000   1.0000   1.0000
    -0.0000  -0.0000  -0.0000  -0.0000

          k = 0.2484 0.1434-0.0014     band energies (ev):

   -12.3522 -12.1561  -1.6771  -0.8036  -0.4051   0.7008   0.9146   1.3469
    11.1335  12.7854  13.2705  13.5713

     occupation numbers 
     1.0000   1.0000   1.0000   1.0000   1.0000   1.0000   1.0000   1.0000
    -0.0000  -0.0000  -0.0000  -0.0000

          k = 0.4967-0.2868-0.0016     band energies (ev):

   -10.3437  -8.4863  -7.3804  -4.6737  -0.6405   0.1426   3.2538   3.4385
     7.4361   9.2454  12.8670  14.2436

     occupation numbers 
     1.0000   1.0000   1.0000   1.0000   1.0000   1.0000   1.0000   1.0000
    -0.0000  -0.0000  -0.0000  -0.0000

          k =-0.4968-0.2868 0.0027     band energies (ev):

   -10.3437  -8.4861  -7.3806  -4.6737  -0.6404   0.1425   3.2630   3.4290
     7.4359   9.2456  12.8669  14.2444

     occupation numbers 
     1.0000   1.0000   1.0000   1.0000   1.0000   1.0000   1.0000   1.0000
    -0.0000  -0.0000  -0.0000  -0.0000

          k =-0.2484 0.4302 0.0002     band energies (ev):

   -10.4714  -9.4021  -4.7651  -3.3732  -3.1238  -1.6111   2.6870   3.4917
     8.4396  10.2133  14.7101  17.1103

     occupation numbers 
     1.0000   1.0000   1.0000   1.0000   1.0000   1.0000   1.0000   1.0000
    -0.0000  -0.0000  -0.0000  -0.0000

          k = 0.4968 0.0000-0.0022     band energies (ev):

   -10.4714  -9.4021  -4.7653  -3.3732  -3.1235  -1.6112   2.6879   3.4908
     8.4381  10.2147  14.7124  17.1183

     occupation numbers 
     1.0000   1.0000   1.0000   1.0000   1.0000   1.0000   1.0000   1.0000
    -0.0000  -0.0000  -0.0000  -0.0000

     the Fermi energy is     5.7134 ev

!    total energy              =     -76.77752738 Ry
     Harris-Foulkes estimate   =     -76.77752738 Ry
     estimated scf accuracy    <       0.00000002 Ry

     total all-electron energy =      -311.843880 Ry

     The total energy is the sum of the following terms:

     one-electron contribution =     -19.69674349 Ry
     hartree contribution      =      17.87179004 Ry
     xc contribution           =     -16.71413853 Ry
     ewald contribution        =     -31.34265286 Ry
     DFT-D3 Dispersion         =      -0.02337261 Ry
     scf correction            =       0.00005725 Ry
     one-center paw contrib.   =     -26.87246718 Ry
      -> PAW hartree energy AE =      46.64709808 Ry
      -> PAW hartree energy PS =     -46.58330683 Ry
      -> PAW xc energy AE      =     -43.91582656 Ry
      -> PAW xc energy PS      =      16.97956813 Ry
      -> total E_H with PAW    =      17.93558130 Ry
      -> total E_XC with PAW   =     -43.65039697 Ry
     smearing contrib. (-TS)   =       0.00000000 Ry

     iteration # 12     ecut=    52.00 Ry     beta= 0.70
     Davidson diagonalization with overlap
     ethr =  9.50E-11,  avg # of iterations =  2.8

     total cpu time spent up to now is      444.7 secs

     End of self-consistent calculation

          k = 0.0000 0.0000 0.0000 (  1691 PWs)   bands (ev):

   -13.6606 -13.4681  -2.1187  -0.6435   2.6672   2.6678   3.0011   3.0015
     9.2670  13.8901  13.8908  13.9715

     occupation numbers 
     1.0000   1.0000   1.0000   1.0000   1.0000   1.0000   1.0000   1.0000
    -0.0000  -0.0000  -0.0000  -0.0000

          k = 0.0000 0.2868-0.0006 (  1660 PWs)   bands (ev):

   -12.3522 -12.1555  -1.6762  -0.8038  -0.4051   0.7013   0.9151   1.3471
    11.1328  12.7875  13.2689  13.5717

     occupation numbers 
     1.0000   1.0000   1.0000   1.0000   1.0000   1.0000   1.0000   1.0000
    -0.0000  -0.0000  -0.0000  -0.0000

          k =-0.0000-0.5736 0.0011 (  1654 PWs)   bands (ev):

   -10.3437  -8.4857  -7.3796  -4.6739  -0.6399   0.1427   3.2558   3.4368
     7.4370   9.2452  12.8675  14.2433

     occupation numbers 
     1.0000   1.0000   1.0000   1.0000   1.0000   1.0000   1.0000   1.0000
    -0.0000  -0.0000  -0.0000  -0.0000

          k = 0.2484 0.4302-0.0019 (  1656 PWs)   bands (ev):

   -10.4714  -9.4014  -4.7646  -3.3734  -3.1230  -1.6112   2.6881   3.4912
     8.4384  10.2148  14.7119  17.1205

     occupation numbers 
     1.0000   1.0000   1.0000   1.0000   1.0000   1.0000   1.0000   1.0000
    -0.0000  -0.0000  -0.0000  -0.0000

          k =-0.2484 0.1434 0.0008 (  1661 PWs)   bands (ev):

   -12.3522 -12.1555  -1.6763  -0.8037  -0.4051   0.7015   0.9151   1.3470
    11.1330  12.7879  13.2684  13.5719

     occupation numbers 
     1.0000   1.0000   1.0000   1.0000   1.0000   1.0000   1.0000   1.0000
    -0.0000  -0.0000  -0.0000  -0.0000

          k = 0.2484 0.1434-0.0014 (  1669 PWs)   bands (ev):

   -12.3522 -12.1555  -1.6764  -0.8037  -0.4048   0.7016   0.9147   1.3468
    11.1335  12.7859  13.2705  13.5719

     occupation numbers 
     1.0000   1.0000   1.0000   1.0000   1.0000   1.0000   1.0000   1.0000
    -0.0000  -0.0000  -0.0000  -0.0000

          k = 0.4967-0.2868-0.0016 (  1654 PWs)   bands (ev):

   -10.3437  -8.4856  -7.3797  -4.6739  -0.6398   0.1426   3.2540   3.4388
     7.4366   9.2451  12.8676  14.2434

     occupation numbers 
     1.0000   1.0000   1.0000   1.0000   1.0000   1.0000   1.0000   1.0000
    -0.0000  -0.0000  -0.0000  -0.0000

          k =-0.4968-0.2868 0.0027 (  1654 PWs)   bands (ev):

   -10.3437  -8.4854  -7.3799  -4.6739  -0.6397   0.1425   3.2632   3.4293
     7.4364   9.2453  12.8675  14.2442

     occupation numbers 
     1.0000   1.0000   1.0000   1.0000   1.0000   1.0000   1.0000   1.0000
    -0.0000  -0.0000  -0.0000  -0.0000

          k =-0.2484 0.4302 0.0002 (  1658 PWs)   bands (ev):

   -10.4714  -9.4015  -4.7644  -3.3733  -3.1231  -1.6112   2.6873   3.4919
     8.4401  10.2130  14.7102  17.1104

     occupation numbers 
     1.0000   1.0000   1.0000   1.0000   1.0000   1.0000   1.0000   1.0000
    -0.0000  -0.0000  -0.0000  -0.0000

          k = 0.4968 0.0000-0.0022 (  1656 PWs)   bands (ev):

   -10.4714  -9.4014  -4.7646  -3.3733  -3.1229  -1.6113   2.6882   3.4910
     8.4386  10.2144  14.7124  17.1184

     occupation numbers 
     1.0000   1.0000   1.0000   1.0000   1.0000   1.0000   1.0000   1.0000
    -0.0000  -0.0000  -0.0000  -0.0000

     the Fermi energy is     5.7137 ev

!    total energy              =     -76.77752738 Ry
     Harris-Foulkes estimate   =     -76.77752738 Ry
     estimated scf accuracy    <          2.6E-09 Ry

     total all-electron energy =      -311.843880 Ry

     The total energy is the sum of the following terms:

     one-electron contribution =     -19.69649068 Ry
     hartree contribution      =      17.87152969 Ry
     xc contribution           =     -16.71407488 Ry
     ewald contribution        =     -31.34265286 Ry
     DFT-D3 Dispersion         =      -0.02337261 Ry
     one-center paw contrib.   =     -26.87246604 Ry
      -> PAW hartree energy AE =      46.64629462 Ry
      -> PAW hartree energy PS =     -46.58250401 Ry
      -> PAW xc energy AE      =     -43.91565365 Ry
      -> PAW xc energy PS      =      16.97939700 Ry
      -> total E_H with PAW    =      17.93532030 Ry
      -> total E_XC with PAW   =     -43.65033153 Ry
     smearing contrib. (-TS)   =       0.00000000 Ry

     convergence has been achieved in  12 iterations

     Forces acting on atoms (cartesian axes, Ry/au):

     atom    1 type  2   force =    -0.00000896   -0.00004354    0.00078935
     atom    2 type  3   force =    -0.00002328    0.00002440   -0.00013588
     atom    3 type  1   force =     0.00003641    0.00003378   -0.00005808
     atom    4 type  1   force =    -0.00000417   -0.00001464   -0.00059539
     The non-local contrib.  to forces
     atom    1 type  2   force =     0.00002533   -0.00001557    0.00010454
     atom    2 type  3   force =     0.00002906    0.00003977   -0.00022444
     atom    3 type  1   force =     0.00003738    0.00003277    0.00024492
     atom    4 type  1   force =    -0.00002016   -0.00002968   -0.00060943
     The ionic contribution  to forces
     atom    1 type  2   force =    -0.00116652   -0.00056507    0.14858415
     atom    2 type  3   force =    -0.00201986   -0.00069161    0.25144844
     atom    3 type  1   force =     0.00173608    0.00074654   -0.20237547
     atom    4 type  1   force =     0.00145030    0.00051015   -0.19765712
     The local contribution  to forces
     atom    1 type  2   force =     0.00115044    0.00056375   -0.14855459
     atom    2 type  3   force =     0.00196342    0.00065966   -0.25115109
     atom    3 type  1   force =    -0.00173297   -0.00074144    0.20222482
     atom    4 type  1   force =    -0.00142907   -0.00050170    0.19791900
     The core correction contribution to forces
     atom    1 type  2   force =    -0.00002996   -0.00004440    0.00088212
     atom    2 type  3   force =    -0.00000562   -0.00000383   -0.00001158
     atom    3 type  1   force =    -0.00001758   -0.00002180    0.00007227
     atom    4 type  1   force =    -0.00001649   -0.00001263   -0.00000225
     The Hubbard contrib.    to forces
     atom    1 type  2   force =     0.00000000    0.00000000    0.00000000
     atom    2 type  3   force =     0.00000000    0.00000000    0.00000000
     atom    3 type  1   force =     0.00000000    0.00000000    0.00000000
     atom    4 type  1   force =     0.00000000    0.00000000    0.00000000
     The SCF correction term to forces
     atom    1 type  2   force =    -0.00000027   -0.00000028    0.00001926
     atom    2 type  3   force =    -0.00000278    0.00000223    0.00003670
     atom    3 type  1   force =     0.00000221    0.00000007   -0.00003766
     atom    4 type  1   force =    -0.00000184    0.00000086   -0.00003777

     DFT-D3 dispersion contribution to forces:
     atom    1 type  2   force =    -0.00000022   -0.00000001   -0.00002743
     atom    2 type  3   force =     0.00000028    0.00000013   -0.00001521
     atom    3 type  1   force =    -0.00000093   -0.00000042    0.00003174
     atom    4 type  1   force =     0.00000086    0.00000031    0.00001089

     Total force =     0.001003     Total SCF correction =     0.000068

     DFT-D3 dispersion Force =     0.000046


     Computing stress (Cartesian axis) and pressure

          total   stress  (Ry/bohr**3)                   (kbar)     P=        0.60
   0.00000105   0.00000011   0.00000106            0.15        0.02        0.16
   0.00000011   0.00000118   0.00000051            0.02        0.17        0.08
   0.00000106   0.00000051   0.00000995            0.16        0.08        1.46

     kinetic stress (kbar)  10667.64      0.06    -10.71
                                0.06  10667.54     -4.21
                              -10.71     -4.21  12057.44

     local   stress (kbar) -24991.30      0.98   -359.59
                                0.98 -24993.64   -141.78
                             -359.59   -141.78  21009.46

     nonloc. stress (kbar)   3904.49      0.00      2.47
                                0.00   3904.47      0.98
                                2.47      0.98   3590.73

     hartree stress (kbar)   8395.48     -0.33    118.32
                               -0.33   8396.25     46.64
                              118.32     46.64  -6767.06

     exc-cor stress (kbar)  -1386.25      0.00      0.83
                                0.00  -1386.24      0.33
                                0.83      0.33  -1493.39

     corecor stress (kbar)  -1331.92     -0.03     -0.27
                               -0.03  -1331.87     -0.10
                               -0.27     -0.10  -1294.33

     ewald   stress (kbar)   4748.85     -0.66    249.01
                               -0.66   4750.50     98.18
                              249.01     98.18 -27080.37

     hubbard stress (kbar)      0.00      0.00      0.00
                                0.00      0.00      0.00
                                0.00      0.00      0.00

     london  stress (kbar)      0.00      0.00      0.00
                                0.00      0.00      0.00
                                0.00      0.00      0.00

     DFT-D3  stress (kbar)     -6.84     -0.00      0.10
                               -0.00     -6.83      0.04
                                0.10      0.04    -21.02

     XDM     stress (kbar)      0.00      0.00      0.00
                                0.00      0.00      0.00
                                0.00      0.00      0.00

     dft-nl  stress (kbar)      0.00      0.00      0.00
                                0.00      0.00      0.00
                                0.00      0.00      0.00

     TS-vdW  stress (kbar)      0.00      0.00      0.00
                                0.00      0.00      0.00
                                0.00      0.00      0.00



     Writing output data file ./Gr_BN.save/

     init_run     :      3.96s CPU      3.96s WALL (       2 calls)
     electrons    :    200.23s CPU    200.76s WALL (      33 calls)
     update_pot   :     48.03s CPU     48.07s WALL (      31 calls)
     forces       :     77.54s CPU     77.59s WALL (      33 calls)
     stress       :    115.66s CPU    115.71s WALL (      33 calls)

     Called by init_run:
     wfcinit      :      0.27s CPU      0.27s WALL (       2 calls)
     wfcinit:atom :      0.00s CPU      0.00s WALL (      20 calls)
     wfcinit:wfcr :      0.24s CPU      0.24s WALL (      20 calls)
     potinit      :      1.01s CPU      1.02s WALL (       2 calls)
     hinit0       :      2.63s CPU      2.63s WALL (       2 calls)

     Called by electrons:
     c_bands      :     95.61s CPU     96.01s WALL (     294 calls)
     sum_band     :     16.79s CPU     16.85s WALL (     294 calls)
     v_of_rho     :      4.72s CPU      4.73s WALL (     326 calls)
     v_h          :      0.17s CPU      0.17s WALL (     326 calls)
     v_xc         :      5.47s CPU      5.47s WALL (     392 calls)
     newd         :      5.20s CPU      5.21s WALL (     326 calls)
     PAW_pot      :     40.03s CPU     40.06s WALL (     357 calls)
     mix_rho      :      0.35s CPU      0.35s WALL (     294 calls)

     Called by c_bands:
     init_us_2    :      2.10s CPU      2.11s WALL (    6870 calls)
     cegterg      :     93.25s CPU     93.64s WALL (    2940 calls)

     Called by sum_band:
     sum_band:bec :      0.02s CPU      0.02s WALL (    3250 calls)
     addusdens    :      4.61s CPU      4.61s WALL (     294 calls)

     Called by *egterg:
     h_psi        :     67.06s CPU     67.35s WALL (   14495 calls)
     s_psi        :      5.27s CPU      5.29s WALL (   14495 calls)
     g_psi        :      0.31s CPU      0.31s WALL (   11535 calls)
     cdiaghg      :      2.96s CPU      2.97s WALL (   14155 calls)
     cegterg:over :      7.90s CPU      7.94s WALL (   11535 calls)
     cegterg:upda :      4.70s CPU      4.72s WALL (   11535 calls)
     cegterg:last :      3.20s CPU      3.21s WALL (    3557 calls)

     Called by h_psi:
     h_psi:calbec :      6.40s CPU      6.43s WALL (   14495 calls)
     vloc_psi     :     55.15s CPU     55.40s WALL (   14495 calls)
     add_vuspsi   :      5.31s CPU      5.33s WALL (   14495 calls)

     General routines
     calbec       :      9.67s CPU      9.72s WALL (   19395 calls)
     fft          :      1.89s CPU      1.90s WALL (    4443 calls)
     ffts         :      0.13s CPU      0.13s WALL (     294 calls)
     fftw         :     57.93s CPU     58.19s WALL (  259596 calls)


     PAW routines
     PAW_pot      :     40.03s CPU     40.06s WALL (     357 calls)

     PWSCF        :   7m30.58s CPU   7m31.27s WALL


   This run was terminated on:   1:36:48  13May2020            

=------------------------------------------------------------------------------=
   JOB DONE.
=------------------------------------------------------------------------------=
