
     Program PWSCF v.6.5 starts on  4Jun2020 at 19:19:14 

     This program is part of the open-source Quantum ESPRESSO suite
     for quantum simulation of materials; please cite
         "P. Giannozzi et al., J. Phys.:Condens. Matter 21 395502 (2009);
         "P. Giannozzi et al., J. Phys.:Condens. Matter 29 465901 (2017);
          URL http://www.quantum-espresso.org", 
     in publications or presentations arising from this work. More details at
     http://www.quantum-espresso.org/quote

     Serial version
     Reading input from relax.inp

     Current dimensions of program PWSCF are:
     Max number of different atomic species (ntypx) = 10
     Max number of k-points (npk) =  40000
     Max angular momentum in pseudopotentials (lmaxx) =  3
     Message from routine read_upf::
     Pseudo file C.pbe-n-kjpaw_psl.0.1.UPF has been fixed on the fly.
To avoid this message in the future, permanently fix 
 your pseudo files following these instructions: 
https://gitlab.com/QEF/q-e/blob/master/upftools/how_to_fix_upf.md
     Message from routine read_upf::
     Pseudo file B.pbe-n-kjpaw_psl.0.1.UPF has been fixed on the fly.
To avoid this message in the future, permanently fix 
 your pseudo files following these instructions: 
https://gitlab.com/QEF/q-e/blob/master/upftools/how_to_fix_upf.md
     Message from routine read_upf::
     Pseudo file N.pbe-n-kjpaw_psl.0.1.UPF has been fixed on the fly.
To avoid this message in the future, permanently fix 
 your pseudo files following these instructions: 
https://gitlab.com/QEF/q-e/blob/master/upftools/how_to_fix_upf.md
               file C.pbe-n-kjpaw_psl.0.1.UPF: wavefunction(s)  2P renormalized
               file B.pbe-n-kjpaw_psl.0.1.UPF: wavefunction(s)  2P renormalized
               file N.pbe-n-kjpaw_psl.0.1.UPF: wavefunction(s)  2P renormalized

     --------------------------------------------
     Parameters for DFT-D3 Dispersion Correction:
     --------------------------------------------
       Reference C6 values for interpolation: 

         atom   Coordination number   C6
         B          0.000           214.36
         B          0.971           150.74
         B          1.944           106.23
         B          2.913            62.89
         B          4.586            56.06
         C          0.000            98.23
         C          0.987            86.49
         C          1.998            58.72
         C          2.999            51.56
         C          3.984            36.41
         N          0.000            50.54
         N          0.994            44.25
         N          2.014            39.35
         N          2.990            31.16

       Values used:

         atom   Coordination number  R0_AB[au]  C6      C8
         B          3.426            3.039     62.81   2502.81
         N          3.178            2.478     31.20    688.35
         C          3.321            2.750     48.15   1392.47
         C          3.322            2.750     48.13   1391.98

         Molecular C6 ( Ry / a.u.^6 ) =       746.72


     G-vector sticks info
     --------------------
     sticks:   dense  smooth     PW     G-vecs:    dense   smooth      PW
     Sum         313     313     91                12119    12119    2031


     Title: 
     Unstrained graphene optimization. 2 atoms fragment. VC-RELAX               


     bravais-lattice index     =            4
     lattice parameter (alat)  =       4.6638  a.u.
     unit-cell volume          =     238.5022 (a.u.)^3
     number of atoms/cell      =            4
     number of atomic types    =            3
     number of electrons       =        16.00
     number of Kohn-Sham states=           12
     kinetic-energy cutoff     =      52.0000  Ry
     charge density cutoff     =     208.0000  Ry
     convergence threshold     =      1.0E-06
     mixing beta               =       0.7000
     number of iterations used =            8  plain     mixing
     Exchange-correlation= SLA PW PBX PBC
                           (   1   4   3   4   0   0   0)
     nstep                     =          200


     celldm(1)=   4.663844  celldm(2)=   0.000000  celldm(3)=   2.714749
     celldm(4)=   0.000000  celldm(5)=   0.000000  celldm(6)=   0.000000

     crystal axes: (cart. coord. in units of alat)
               a(1) = (   1.000000   0.000000   0.000000 )  
               a(2) = (  -0.500000   0.866025   0.000000 )  
               a(3) = (   0.000000   0.000000   2.714749 )  

     reciprocal axes: (cart. coord. in units 2 pi/alat)
               b(1) = (  1.000000  0.577350 -0.000000 )  
               b(2) = (  0.000000  1.154701  0.000000 )  
               b(3) = (  0.000000 -0.000000  0.368358 )  


     PseudoPot. # 1 for C  read from file:
     ./C.pbe-n-kjpaw_psl.0.1.UPF
     MD5 check sum: 430fe95172b1e11ef3f8ed03bac87931
     Pseudo is Projector augmented-wave + core cor, Zval =  4.0
     Generated using "atomic" code by A. Dal Corso v.5.0.99 svn rev. 10869
     Shape of augmentation charge: BESSEL
     Using radial grid of 1073 points,  4 beta functions with: 
                l(1) =   0
                l(2) =   0
                l(3) =   1
                l(4) =   1
     Q(r) pseudized with 0 coefficients 


     PseudoPot. # 2 for B  read from file:
     ./B.pbe-n-kjpaw_psl.0.1.UPF
     MD5 check sum: b4345a612e0782cca08559f453f3313f
     Pseudo is Projector augmented-wave + core cor, Zval =  3.0
     Generated using "atomic" code by A. Dal Corso v.5.0.99 svn rev. 10869
     Shape of augmentation charge: BESSEL
     Using radial grid of 1059 points,  4 beta functions with: 
                l(1) =   0
                l(2) =   0
                l(3) =   1
                l(4) =   1
     Q(r) pseudized with 0 coefficients 


     PseudoPot. # 3 for N  read from file:
     ./N.pbe-n-kjpaw_psl.0.1.UPF
     MD5 check sum: f73187c8b701007e77325f868c9291d7
     Pseudo is Projector augmented-wave + core cor, Zval =  5.0
     Generated using "atomic" code by A. Dal Corso v.5.0.99 svn rev. 10869
     Shape of augmentation charge: PSQ
     Using radial grid of 1085 points,  4 beta functions with: 
                l(1) =   0
                l(2) =   0
                l(3) =   1
                l(4) =   1
     Q(r) pseudized with 0 coefficients 


     atomic species   valence    mass     pseudopotential
        C              4.00    12.01100     C ( 1.00)
        B              3.00    10.81700     B ( 1.00)
        N              5.00    14.00700     N ( 1.00)

     No symmetry found


                                    s                        frac. trans.

      isym =  1     identity                                     

 cryst.   s( 1) = (     1          0          0      )
                  (     0          1          0      )
                  (     0          0          1      )

 cart.    s( 1) = (  1.0000000  0.0000000  0.0000000 )
                  (  0.0000000  1.0000000  0.0000000 )
                  (  0.0000000  0.0000000  1.0000000 )


     point group C_1 (1)    
     there are  1 classes
     the character table:

       E    
A      1.00

     the symmetry operations in each class and the name of the first element:

     E        1
          identity                                               

   Cartesian axes

     site n.     atom                  positions (alat units)
         1           B   tau(   1) = (   0.0066712   0.5813597   1.2109846  )
         2           N   tau(   2) = (   0.5066339   0.2926823   1.2107437  )
         3           C   tau(   3) = (   0.0041550   0.0007249   2.4798508  )
         4           C   tau(   4) = (   0.0066712   0.5813597   2.4797819  )

   Crystallographic axes

     site n.     atom                  positions (cryst. coord.)
         1           B   tau(   1) = (  0.3423193  0.6712963  0.4460761  )
         2           N   tau(   2) = (  0.6756141  0.3379605  0.4459874  )
         3           C   tau(   3) = (  0.0045735  0.0008371  0.9134734  )
         4           C   tau(   4) = (  0.3423193  0.6712963  0.9134480  )

     number of k points=    10  Methfessel-Paxton smearing, width (Ry)=  0.0200
                       cart. coord. in units 2pi/alat
        k(    1) = (   0.0000000   0.0000000   0.0000000), wk =   0.1250000
        k(    2) = (   0.0000000   0.2886751   0.0000000), wk =   0.2500000
        k(    3) = (   0.0000000  -0.5773503   0.0000000), wk =   0.1250000
        k(    4) = (   0.2500000   0.4330127   0.0000000), wk =   0.2500000
        k(    5) = (  -0.2500000   0.1443376   0.0000000), wk =   0.2500000
        k(    6) = (   0.2500000   0.1443376   0.0000000), wk =   0.2500000
        k(    7) = (   0.5000000  -0.2886751   0.0000000), wk =   0.1250000
        k(    8) = (  -0.5000000  -0.2886751   0.0000000), wk =   0.1250000
        k(    9) = (  -0.2500000   0.4330127   0.0000000), wk =   0.2500000
        k(   10) = (   0.5000000  -0.0000000   0.0000000), wk =   0.2500000

                       cryst. coord.
        k(    1) = (   0.0000000   0.0000000   0.0000000), wk =   0.1250000
        k(    2) = (   0.0000000   0.2500000   0.0000000), wk =   0.2500000
        k(    3) = (   0.0000000  -0.5000000   0.0000000), wk =   0.1250000
        k(    4) = (   0.2500000   0.2500000   0.0000000), wk =   0.2500000
        k(    5) = (  -0.2500000   0.2500000   0.0000000), wk =   0.2500000
        k(    6) = (   0.2500000   0.0000000   0.0000000), wk =   0.2500000
        k(    7) = (   0.5000000  -0.5000000   0.0000000), wk =   0.1250000
        k(    8) = (  -0.5000000   0.0000000   0.0000000), wk =   0.1250000
        k(    9) = (  -0.2500000   0.5000000   0.0000000), wk =   0.2500000
        k(   10) = (   0.5000000  -0.2500000   0.0000000), wk =   0.2500000

     Dense  grid:    12119 G-vectors     FFT dimensions: (  24,  24,  60)

     Dynamical RAM for                 wfc:       0.28 MB

     Dynamical RAM for     wfc (w. buffer):       3.04 MB

     Dynamical RAM for           str. fact:       0.55 MB

     Dynamical RAM for           local pot:       0.00 MB

     Dynamical RAM for          nlocal pot:       0.74 MB

     Dynamical RAM for                qrad:       1.48 MB

     Dynamical RAM for          rho,v,vnew:       1.35 MB

     Dynamical RAM for               rhoin:       0.45 MB

     Dynamical RAM for            rho*nmix:       2.96 MB

     Dynamical RAM for           G-vectors:       0.79 MB

     Dynamical RAM for          h,s,v(r/c):       0.11 MB

     Dynamical RAM for          <psi|beta>:       0.01 MB

     Dynamical RAM for                 psi:       1.11 MB

     Dynamical RAM for                hpsi:       1.11 MB

     Dynamical RAM for                spsi:       1.11 MB

     Dynamical RAM for      wfcinit/wfcrot:       0.74 MB

     Dynamical RAM for           addusdens:       8.32 MB

     Dynamical RAM for          addusforce:       9.90 MB

     Dynamical RAM for         addusstress:       9.25 MB

     Estimated static dynamical RAM per process >      13.41 MB

     Estimated max dynamical RAM per process >      23.30 MB

     Check: negative core charge=   -0.000048

     Initial potential from superposition of free atoms

     starting charge   15.99963, renormalised to   16.00000
     Starting wfcs are   16 randomized atomic wfcs

     total cpu time spent up to now is        2.6 secs

     Self-consistent Calculation

     iteration #  1     ecut=    52.00 Ry     beta= 0.70
     Davidson diagonalization with overlap
     ethr =  1.00E-02,  avg # of iterations =  3.8

     total cpu time spent up to now is        5.2 secs

          k = 0.0000 0.0000 0.0000     band energies (ev):

   -15.9601 -14.6243  -2.8395  -1.1862  -0.1442  -0.1423   1.1081   1.4860
    10.5746  12.7297  13.1566  14.3688

     occupation numbers 
     1.0000   1.0000   1.0000   1.0000   1.0000   1.0000   1.0000   1.0000
    -0.0000  -0.0000  -0.0000  -0.0000

          k = 0.0000 0.2887 0.0000     band energies (ev):

   -14.8571 -13.2131  -3.5089  -2.9476  -1.6168  -1.2575  -0.6551   0.3214
    12.2284  12.2964  12.6142  12.9683

     occupation numbers 
     1.0000   1.0000   1.0000   1.0000   1.0000   1.0000   1.0000   1.0000
    -0.0000  -0.0000  -0.0000  -0.0000

          k = 0.0000-0.5774 0.0000     band energies (ev):

   -13.1080  -9.6584  -8.4417  -6.9656  -2.7324  -1.9001   1.4235   3.0907
     7.8800   8.9893  12.3361  13.3170

     occupation numbers 
     1.0000   1.0000   1.0000   1.0000   1.0000   1.0000   1.0000   1.0000
    -0.0000  -0.0000  -0.0000  -0.0000

          k = 0.2500 0.4330 0.0000     band energies (ev):

   -13.1995 -10.5071  -6.0318  -5.8713  -4.4059  -4.1775   1.2209   2.9923
     8.2559   9.6924  15.5804  17.2909

     occupation numbers 
     1.0000   1.0000   1.0000   1.0000   1.0000   1.0000   1.0000   1.0000
    -0.0000  -0.0000  -0.0000  -0.0000

          k =-0.2500 0.1443 0.0000     band energies (ev):

   -14.8590 -13.2145  -3.5111  -3.0171  -1.6165  -1.2562  -0.5698   0.3270
    12.2206  12.2928  12.5995  13.0058

     occupation numbers 
     1.0000   1.0000   1.0000   1.0000   1.0000   1.0000   1.0000   1.0000
    -0.0000  -0.0000  -0.0000  -0.0000

          k = 0.2500 0.1443 0.0000     band energies (ev):

   -14.8579 -13.2163  -3.5108  -3.1039  -1.6176  -1.2543  -0.4971   0.3365
    12.2052  12.2840  12.5815  13.0920

     occupation numbers 
     1.0000   1.0000   1.0000   1.0000   1.0000   1.0000   1.0000   1.0000
    -0.0000  -0.0000  -0.0000  -0.0000

          k = 0.5000-0.2887 0.0000     band energies (ev):

   -13.1074  -9.6234  -8.5213  -6.9698  -2.7324  -1.9016   1.4233   3.1411
     7.3787   8.9775  12.3563  13.3206

     occupation numbers 
     1.0000   1.0000   1.0000   1.0000   1.0000   1.0000   1.0000   1.0000
    -0.0000  -0.0000  -0.0000  -0.0000

          k =-0.5000-0.2887 0.0000     band energies (ev):

   -13.1079  -9.5545  -8.6448  -6.9656  -2.7326  -1.7655   1.4231   3.2259
     7.2394   8.9925  12.4026  13.3214

     occupation numbers 
     1.0000   1.0000   1.0000   1.0000   1.0000   1.0000   1.0000   1.0000
    -0.0000  -0.0000  -0.0000  -0.0000

          k =-0.2500 0.4330 0.0000     band energies (ev):

   -13.1988 -10.5083  -5.9367  -5.8720  -4.5066  -4.1769   1.2199   2.9588
     8.2102   9.6972  15.5899  17.4278

     occupation numbers 
     1.0000   1.0000   1.0000   1.0000   1.0000   1.0000   1.0000   1.0000
    -0.0000  -0.0000  -0.0000  -0.0000

          k = 0.5000-0.0000 0.0000     band energies (ev):

   -13.1926 -10.5076  -6.0903  -5.8682  -4.3415  -4.1772   1.2215   3.0169
     8.0990   9.6947  15.5899  17.2038

     occupation numbers 
     1.0000   1.0000   1.0000   1.0000   1.0000   1.0000   1.0000   1.0000
    -0.0000  -0.0000  -0.0000  -0.0000

     the Fermi energy is     5.0434 ev

!    total energy              =     -76.59461469 Ry
     Harris-Foulkes estimate   =     -76.97592074 Ry
     estimated scf accuracy    <       0.58272511 Ry

     total all-electron energy =      -311.660967 Ry

     The total energy is the sum of the following terms:

     one-electron contribution =     -15.90002740 Ry
     hartree contribution      =      16.40232737 Ry
     xc contribution           =     -16.91068094 Ry
     ewald contribution        =     -34.51187014 Ry
     DFT-D3 Dispersion         =      -0.02654533 Ry
     scf correction            =       1.30221601 Ry
     one-center paw contrib.   =     -26.95003427 Ry
      -> PAW hartree energy AE =      41.71590563 Ry
      -> PAW hartree energy PS =     -41.64772764 Ry
      -> PAW xc energy AE      =     -42.78528718 Ry
      -> PAW xc energy PS      =      15.76707493 Ry
      -> total E_H with PAW    =      16.47050535 Ry
      -> total E_XC with PAW   =     -43.92889319 Ry
     smearing contrib. (-TS)   =       0.00000000 Ry

     iteration #  2     ecut=    52.00 Ry     beta= 0.70
     Davidson diagonalization with overlap
     ethr =  3.64E-03,  avg # of iterations =  3.0

     total cpu time spent up to now is        5.6 secs

          k = 0.0000 0.0000 0.0000     band energies (ev):

   -13.1389 -11.4615  -1.5901   1.2240   3.2534   3.5908   5.5215   5.5257
    10.7414  14.5212  14.9173  17.3983

     occupation numbers 
     1.0000   1.0000   1.0000   1.0000   1.0000   1.0000   1.0000   1.0000
    -0.0000  -0.0000  -0.0000  -0.0000

          k = 0.0000 0.2887 0.0000     band energies (ev):

   -11.6737 -10.2013  -0.9936   0.1826   1.3226   1.3718   2.8369   3.6604
    12.6465  13.6657  14.4060  15.5943

     occupation numbers 
     1.0000   1.0000   1.0000   1.0000   1.0000   1.0000   1.0000   1.0000
    -0.0000  -0.0000  -0.0000  -0.0000

          k = 0.0000-0.5774 0.0000     band energies (ev):

    -7.9674  -7.9343  -6.7618  -2.9073   0.0047   2.3433   3.9313   5.5207
     8.4956  10.5259  13.7074  15.9376

     occupation numbers 
     1.0000   1.0000   1.0000   1.0000   1.0000   1.0000   1.0000   1.0000
    -0.0336  -0.0000  -0.0000  -0.0000

          k = 0.2500 0.4330 0.0000     band energies (ev):

    -8.8669  -8.1168  -4.1713  -2.5431  -1.4023   0.3526   3.4604   5.6495
     9.1862  11.6920  16.2072  18.8571

     occupation numbers 
     1.0000   1.0000   1.0000   1.0000   1.0000   1.0000   1.0000   1.0000
    -0.0000  -0.0000  -0.0000  -0.0000

          k =-0.2500 0.1443 0.0000     band energies (ev):

   -11.6741 -10.2013  -1.0424   0.1859   1.3731   1.4097   2.8385   3.6674
    12.6423  13.6384  14.4475  15.5959

     occupation numbers 
     1.0000   1.0000   1.0000   1.0000   1.0000   1.0000   1.0000   1.0000
    -0.0000  -0.0000  -0.0000  -0.0000

          k = 0.2500 0.1443 0.0000     band energies (ev):

   -11.6766 -10.2003  -1.1184   0.1936   1.3665   1.3864   2.8409   3.6527
    12.6596  13.5938  14.5147  15.5981

     occupation numbers 
     1.0000   1.0000   1.0000   1.0000   1.0000   1.0000   1.0000   1.0000
    -0.0000  -0.0000  -0.0000  -0.0000

          k = 0.5000-0.2887 0.0000     band energies (ev):

    -7.9674  -7.9033  -6.8127  -2.9069   0.0367   2.3461   3.9763   5.5165
     8.4131  10.5227  13.7215  15.9364

     occupation numbers 
     1.0000   1.0000   1.0000   1.0000   1.0000   1.0000   1.0000   1.0000
    -0.0288  -0.0000  -0.0000  -0.0000

          k =-0.5000-0.2887 0.0000     band energies (ev):

    -7.9682  -7.8698  -6.8984  -2.9060   0.1320   2.3453   4.0511   5.5079
     8.3044  10.5328  13.7552  15.9367

     occupation numbers 
     1.0000   1.0000   1.0000   1.0000   1.0000   1.0000   1.0000   1.0000
     0.0625  -0.0000  -0.0000  -0.0000

          k =-0.2500 0.4330 0.0000     band energies (ev):

    -8.8657  -8.1172  -4.1006  -2.6209  -1.4118   0.3506   3.4360   5.6322
     9.2481  11.6800  16.2058  18.9811

     occupation numbers 
     1.0000   1.0000   1.0000   1.0000   1.0000   1.0000   1.0000   1.0000
    -0.0000  -0.0000  -0.0000  -0.0000

          k = 0.5000-0.0000 0.0000     band energies (ev):

    -8.8688  -8.1153  -4.2139  -2.4984  -1.4096   0.3512   3.4785   5.6431
     9.1462  11.6801  16.1935  18.7671

     occupation numbers 
     1.0000   1.0000   1.0000   1.0000   1.0000   1.0000   1.0000   1.0000
    -0.0000  -0.0000  -0.0000  -0.0000

     the Fermi energy is     8.1300 ev

!    total energy              =     -76.69700845 Ry
     Harris-Foulkes estimate   =     -76.81956602 Ry
     estimated scf accuracy    <       0.21702167 Ry

     total all-electron energy =      -311.763361 Ry

     The total energy is the sum of the following terms:

     one-electron contribution =     -13.61860070 Ry
     hartree contribution      =      15.69208511 Ry
     xc contribution           =     -16.75242570 Ry
     ewald contribution        =     -34.51187014 Ry
     DFT-D3 Dispersion         =      -0.02654533 Ry
     scf correction            =      -0.57031595 Ry
     one-center paw contrib.   =     -26.90958461 Ry
      -> PAW hartree energy AE =      43.86548762 Ry
      -> PAW hartree energy PS =     -43.80024615 Ry
      -> PAW xc energy AE      =     -43.36189014 Ry
      -> PAW xc energy PS      =      16.38706406 Ry
      -> total E_H with PAW    =      15.75732658 Ry
      -> total E_XC with PAW   =     -43.72725178 Ry
     smearing contrib. (-TS)   =       0.00024886 Ry

     iteration #  3     ecut=    52.00 Ry     beta= 0.70
     Davidson diagonalization with overlap
     ethr =  1.36E-03,  avg # of iterations =  3.3

     total cpu time spent up to now is        6.1 secs

          k = 0.0000 0.0000 0.0000     band energies (ev):

   -13.2855 -12.3310  -1.5622   0.5018   3.3240   3.3268   3.9992   4.2999
    10.6043  15.2878  15.6839  15.9631

     occupation numbers 
     1.0000   1.0000   1.0000   1.0000   1.0000   1.0000   1.0000   1.0000
    -0.0000  -0.0000  -0.0000  -0.0000

          k = 0.0000 0.2887 0.0000     band energies (ev):

   -12.0916 -10.8742  -0.4856  -0.1717   0.1601   1.6638   2.0567   2.0722
    12.4519  13.9951  14.4925  15.1506

     occupation numbers 
     1.0000   1.0000   1.0000   1.0000   1.0000   1.0000   1.0000   1.0000
    -0.0000  -0.0000  -0.0000  -0.0000

          k = 0.0000-0.5774 0.0000     band energies (ev):

   -10.0857  -7.1511  -5.9863  -4.3446   0.4482   0.7256   3.6534   4.5831
     8.9614  10.0547  14.3865  15.0661

     occupation numbers 
     1.0000   1.0000   1.0000   1.0000   1.0000   1.0000   1.0000   1.0000
    -0.0000  -0.0000  -0.0000  -0.0000

          k = 0.2500 0.4330 0.0000     band energies (ev):

   -10.2118  -8.0697  -3.3706  -3.0635  -1.7329  -1.2585   3.1839   4.6771
     9.7497  11.0290  15.9661  19.3911

     occupation numbers 
     1.0000   1.0000   1.0000   1.0000   1.0000   1.0000   1.0000   1.0000
    -0.0000  -0.0000  -0.0000  -0.0000

          k =-0.2500 0.1443 0.0000     band energies (ev):

   -12.0917 -10.8749  -0.4896  -0.2181   0.1701   1.6645   2.0612   2.1353
    12.4583  13.9945  14.4849  15.1901

     occupation numbers 
     1.0000   1.0000   1.0000   1.0000   1.0000   1.0000   1.0000   1.0000
    -0.0000  -0.0000  -0.0000  -0.0000

          k = 0.2500 0.1443 0.0000     band energies (ev):

   -12.0907 -10.8759  -0.4920  -0.2864   0.1677   1.6645   2.0665   2.2265
    12.4617  13.9593  14.4626  15.2625

     occupation numbers 
     1.0000   1.0000   1.0000   1.0000   1.0000   1.0000   1.0000   1.0000
    -0.0000  -0.0000  -0.0000  -0.0000

          k = 0.5000-0.2887 0.0000     band energies (ev):

   -10.0853  -7.1251  -6.0359  -4.3378   0.4499   0.7709   3.6433   4.6390
     8.8920  10.0541  14.3982  15.0674

     occupation numbers 
     1.0000   1.0000   1.0000   1.0000   1.0000   1.0000   1.0000   1.0000
    -0.0000  -0.0000  -0.0000  -0.0000

          k =-0.5000-0.2887 0.0000     band energies (ev):

   -10.0861  -7.0872  -6.1265  -4.3418   0.4565   0.8394   3.6427   4.6886
     8.7512  10.0602  14.4284  15.0699

     occupation numbers 
     1.0000   1.0000   1.0000   1.0000   1.0000   1.0000   1.0000   1.0000
    -0.0000  -0.0000  -0.0000  -0.0000

          k =-0.2500 0.4330 0.0000     band energies (ev):

   -10.2123  -8.0685  -3.3017  -3.0640  -1.8131  -1.2717   3.1793   4.6535
     9.8154  11.0332  15.9599  18.8928

     occupation numbers 
     1.0000   1.0000   1.0000   1.0000   1.0000   1.0000   1.0000   1.0000
    -0.0000  -0.0000  -0.0000  -0.0000

          k = 0.5000-0.0000 0.0000     band energies (ev):

   -10.2119  -8.0712  -3.4114  -3.0622  -1.6895  -1.2633   3.1869   4.6941
     9.7325  11.0287  15.9675  19.3218

     occupation numbers 
     1.0000   1.0000   1.0000   1.0000   1.0000   1.0000   1.0000   1.0000
    -0.0000  -0.0000  -0.0000  -0.0000

     the Fermi energy is     7.2734 ev

!    total energy              =     -76.76731376 Ry
     Harris-Foulkes estimate   =     -76.77083149 Ry
     estimated scf accuracy    <       0.00881160 Ry

     total all-electron energy =      -311.833666 Ry

     The total energy is the sum of the following terms:

     one-electron contribution =     -14.57103617 Ry
     hartree contribution      =      15.87558370 Ry
     xc contribution           =     -16.79851572 Ry
     ewald contribution        =     -34.51187014 Ry
     DFT-D3 Dispersion         =      -0.02654533 Ry
     scf correction            =       0.14985405 Ry
     one-center paw contrib.   =     -26.88478416 Ry
      -> PAW hartree energy AE =      46.83888222 Ry
      -> PAW hartree energy PS =     -46.77381955 Ry
      -> PAW xc energy AE      =     -43.99078744 Ry
      -> PAW xc energy PS      =      17.04094061 Ry
      -> total E_H with PAW    =      15.94064636 Ry
      -> total E_XC with PAW   =     -43.74836255 Ry
     smearing contrib. (-TS)   =       0.00000000 Ry

     iteration #  4     ecut=    52.00 Ry     beta= 0.70
     Davidson diagonalization with overlap
     ethr =  5.51E-05,  avg # of iterations =  5.1

     total cpu time spent up to now is        6.7 secs

          k = 0.0000 0.0000 0.0000     band energies (ev):

   -12.8269 -12.4955  -1.5388   0.6538   3.6575   3.9621   4.0320   4.0344
    10.6512  14.9267  15.3263  16.2900

     occupation numbers 
     1.0000   1.0000   1.0000   1.0000   1.0000   1.0000   1.0000   1.0000
    -0.0000  -0.0000  -0.0000  -0.0000

          k = 0.0000 0.2887 0.0000     band energies (ev):

   -11.5064 -11.1566  -0.5399   0.1528   0.2524   1.7252   2.2010   2.3538
    12.4875  13.9474  14.6298  14.8558

     occupation numbers 
     1.0000   1.0000   1.0000   1.0000   1.0000   1.0000   1.0000   1.0000
    -0.0000  -0.0000  -0.0000  -0.0000

          k = 0.0000-0.5774 0.0000     band energies (ev):

    -9.4140  -7.4914  -6.3364  -3.7337   0.3748   1.1313   4.0829   4.3854
     8.6661  10.4453  14.0839  15.4744

     occupation numbers 
     1.0000   1.0000   1.0000   1.0000   1.0000   1.0000   1.0000   1.0000
    -0.0000  -0.0000  -0.0000  -0.0000

          k = 0.2500 0.4330 0.0000     band energies (ev):

    -9.5494  -8.4059  -3.7129  -2.4345  -2.0948  -0.6286   3.4071   4.7077
     9.4636  11.4239  16.0180  18.9190

     occupation numbers 
     1.0000   1.0000   1.0000   1.0000   1.0000   1.0000   1.0000   1.0000
    -0.0000  -0.0000  -0.0000  -0.0000

          k =-0.2500 0.1443 0.0000     band energies (ev):

   -11.5067 -11.1576  -0.5918   0.1537   0.2536   1.7904   2.2037   2.3546
    12.4878  13.9187  14.6410  14.8808

     occupation numbers 
     1.0000   1.0000   1.0000   1.0000   1.0000   1.0000   1.0000   1.0000
    -0.0000  -0.0000  -0.0000  -0.0000

          k = 0.2500 0.1443 0.0000     band energies (ev):

   -11.5071 -11.1590  -0.6654   0.1566   0.2566   1.8821   2.2078   2.3531
    12.4884  13.8739  14.6595  14.9398

     occupation numbers 
     1.0000   1.0000   1.0000   1.0000   1.0000   1.0000   1.0000   1.0000
    -0.0000  -0.0000  -0.0000  -0.0000

          k = 0.5000-0.2887 0.0000     band energies (ev):

    -9.4141  -7.4661  -6.3929  -3.7338   0.4222   1.1320   4.1039   4.4086
     8.5898  10.4478  14.1002  15.4740

     occupation numbers 
     1.0000   1.0000   1.0000   1.0000   1.0000   1.0000   1.0000   1.0000
    -0.0000  -0.0000  -0.0000  -0.0000

          k =-0.5000-0.2887 0.0000     band energies (ev):

    -9.4145  -7.4230  -6.4834  -3.7324   0.4919   1.1307   4.1295   4.4540
     8.4682  10.4531  14.1359  15.4740

     occupation numbers 
     1.0000   1.0000   1.0000   1.0000   1.0000   1.0000   1.0000   1.0000
    -0.0000  -0.0000  -0.0000  -0.0000

          k =-0.2500 0.4330 0.0000     band energies (ev):

    -9.5492  -8.4047  -3.6390  -2.4383  -2.1732  -0.6271   3.3943   4.6911
     9.5253  11.4247  16.0153  18.8090

     occupation numbers 
     1.0000   1.0000   1.0000   1.0000   1.0000   1.0000   1.0000   1.0000
    -0.0000  -0.0000  -0.0000  -0.0000

          k = 0.5000-0.0000 0.0000     band energies (ev):

    -9.5494  -8.4066  -3.7580  -2.4336  -2.0456  -0.6285   3.4155   4.7188
     9.4240  11.4226  16.0192  18.8733

     occupation numbers 
     1.0000   1.0000   1.0000   1.0000   1.0000   1.0000   1.0000   1.0000
    -0.0000  -0.0000  -0.0000  -0.0000

     the Fermi energy is     7.1503 ev

!    total energy              =     -76.77342112 Ry
     Harris-Foulkes estimate   =     -76.77409587 Ry
     estimated scf accuracy    <       0.00132438 Ry

     total all-electron energy =      -311.839773 Ry

     The total energy is the sum of the following terms:

     one-electron contribution =     -14.38284505 Ry
     hartree contribution      =      15.79961859 Ry
     xc contribution           =     -16.78008104 Ry
     ewald contribution        =     -34.51187014 Ry
     DFT-D3 Dispersion         =      -0.02654533 Ry
     scf correction            =       0.00805252 Ry
     one-center paw contrib.   =     -26.87975069 Ry
      -> PAW hartree energy AE =      47.08207268 Ry
      -> PAW hartree energy PS =     -47.01728596 Ry
      -> PAW xc energy AE      =     -44.02342919 Ry
      -> PAW xc energy PS      =      17.07889179 Ry
      -> total E_H with PAW    =      15.86440531 Ry
      -> total E_XC with PAW   =     -43.72461844 Ry
     smearing contrib. (-TS)   =       0.00000000 Ry

     iteration #  5     ecut=    52.00 Ry     beta= 0.70
     Davidson diagonalization with overlap
     c_bands:  1 eigenvalues not converged
     c_bands:  1 eigenvalues not converged
     ethr =  8.28E-06,  avg # of iterations =  5.7

     total cpu time spent up to now is        7.1 secs

          k = 0.0000 0.0000 0.0000     band energies (ev):

   -12.9023 -12.5428  -1.5745   0.6252   3.5108   3.8177   4.0122   4.0146
    10.6849  14.8069  15.2076  16.2961

     occupation numbers 
     1.0000   1.0000   1.0000   1.0000   1.0000   1.0000   1.0000   1.0000
    -0.0000  -0.0000  -0.0000  -0.0000

          k = 0.0000 0.2887 0.0000     band energies (ev):

   -11.5458 -11.2401  -0.6680   0.1175   0.2228   1.5860   2.1750   2.3256
    12.5197  13.8670  14.5770  14.7831

     occupation numbers 
     1.0000   1.0000   1.0000   1.0000   1.0000   1.0000   1.0000   1.0000
    -0.0000  -0.0000  -0.0000  -0.0000

          k = 0.0000-0.5774 0.0000     band energies (ev):

    -9.4209  -7.6070  -6.4491  -3.7743   0.2385   1.0991   4.0519   4.3661
     8.6023  10.3934  13.9898  15.4403

     occupation numbers 
     1.0000   1.0000   1.0000   1.0000   1.0000   1.0000   1.0000   1.0000
    -0.0000  -0.0000  -0.0000  -0.0000

          k = 0.2500 0.4330 0.0000     band energies (ev):

    -9.5586  -8.5174  -3.8367  -2.4726  -2.2136  -0.6675   3.3786   4.6860
     9.3875  11.3730  16.0454  18.6711

     occupation numbers 
     1.0000   1.0000   1.0000   1.0000   1.0000   1.0000   1.0000   1.0000
    -0.0000  -0.0000  -0.0000  -0.0000

          k =-0.2500 0.1443 0.0000     band energies (ev):

   -11.5462 -11.2409  -0.7204   0.1187   0.2240   1.6517   2.1776   2.3263
    12.5199  13.8381  14.5939  14.8028

     occupation numbers 
     1.0000   1.0000   1.0000   1.0000   1.0000   1.0000   1.0000   1.0000
    -0.0000  -0.0000  -0.0000  -0.0000

          k = 0.2500 0.1443 0.0000     band energies (ev):

   -11.5467 -11.2421  -0.7950   0.1215   0.2266   1.7444   2.1816   2.3252
    12.5208  13.7931  14.6216  14.8538

     occupation numbers 
     1.0000   1.0000   1.0000   1.0000   1.0000   1.0000   1.0000   1.0000
    -0.0000  -0.0000  -0.0000  -0.0000

          k = 0.5000-0.2887 0.0000     band energies (ev):

    -9.4212  -7.5817  -6.5060  -3.7744   0.2863   1.0996   4.0797   4.3826
     8.5258  10.3955  14.0060  15.4401

     occupation numbers 
     1.0000   1.0000   1.0000   1.0000   1.0000   1.0000   1.0000   1.0000
    -0.0000  -0.0000  -0.0000  -0.0000

          k =-0.5000-0.2887 0.0000     band energies (ev):

    -9.4209  -7.5374  -6.5985  -3.7740   0.3570   1.0986   4.1161   4.4174
     8.4033  10.4014  14.0426  15.4394

     occupation numbers 
     1.0000   1.0000   1.0000   1.0000   1.0000   1.0000   1.0000   1.0000
    -0.0000  -0.0000  -0.0000  -0.0000

          k =-0.2500 0.4330 0.0000     band energies (ev):

    -9.5587  -8.5163  -3.7615  -2.4779  -2.2906  -0.6669   3.3646   4.6703
     9.4497  11.3736  16.0423  18.6004

     occupation numbers 
     1.0000   1.0000   1.0000   1.0000   1.0000   1.0000   1.0000   1.0000
    -0.0000  -0.0000  -0.0000  -0.0000

          k = 0.5000-0.0000 0.0000     band energies (ev):

    -9.5587  -8.5181  -3.8820  -2.4708  -2.1650  -0.6674   3.3876   4.6966
     9.3479  11.3719  16.0473  18.8004

     occupation numbers 
     1.0000   1.0000   1.0000   1.0000   1.0000   1.0000   1.0000   1.0000
    -0.0000  -0.0000  -0.0000  -0.0000

     the Fermi energy is     7.0479 ev

!    total energy              =     -76.77357468 Ry
     Harris-Foulkes estimate   =     -76.77363248 Ry
     estimated scf accuracy    <       0.00013651 Ry

     total all-electron energy =      -311.839927 Ry

     The total energy is the sum of the following terms:

     one-electron contribution =     -14.38636598 Ry
     hartree contribution      =      15.79149020 Ry
     xc contribution           =     -16.77672218 Ry
     ewald contribution        =     -34.51187014 Ry
     DFT-D3 Dispersion         =      -0.02654533 Ry
     scf correction            =       0.01256811 Ry
     one-center paw contrib.   =     -26.87612936 Ry
      -> PAW hartree energy AE =      47.38366661 Ry
      -> PAW hartree energy PS =     -47.31899054 Ry
      -> PAW xc energy AE      =     -44.08022021 Ry
      -> PAW xc energy PS      =      17.13941477 Ry
      -> total E_H with PAW    =      15.85616627 Ry
      -> total E_XC with PAW   =     -43.71752761 Ry
     smearing contrib. (-TS)   =       0.00000000 Ry

     iteration #  6     ecut=    52.00 Ry     beta= 0.70
     Davidson diagonalization with overlap
     ethr =  8.53E-07,  avg # of iterations =  5.4

     total cpu time spent up to now is        7.7 secs

          k = 0.0000 0.0000 0.0000     band energies (ev):

   -12.9201 -12.5365  -1.5795   0.6281   3.4665   3.7745   4.0331   4.0352
    10.6841  14.7684  15.1688  16.3193

     occupation numbers 
     1.0000   1.0000   1.0000   1.0000   1.0000   1.0000   1.0000   1.0000
    -0.0000  -0.0000  -0.0000  -0.0000

          k = 0.0000 0.2887 0.0000     band energies (ev):

   -11.5431 -11.2547  -0.7067   0.1266   0.2277   1.5437   2.1781   2.3451
    12.5178  13.8434  14.5663  14.7806

     occupation numbers 
     1.0000   1.0000   1.0000   1.0000   1.0000   1.0000   1.0000   1.0000
    -0.0000  -0.0000  -0.0000  -0.0000

          k = 0.0000-0.5774 0.0000     band energies (ev):

    -9.3987  -7.6424  -6.4836  -3.7565   0.1969   1.1180   4.0466   4.3707
     8.5815  10.4052  13.9604  15.4546

     occupation numbers 
     1.0000   1.0000   1.0000   1.0000   1.0000   1.0000   1.0000   1.0000
    -0.0000  -0.0000  -0.0000  -0.0000

          k = 0.2500 0.4330 0.0000     band energies (ev):

    -9.5369  -8.5514  -3.8742  -2.4574  -2.2478  -0.6493   3.3767   4.6873
     9.3645  11.3849  16.0452  18.6603

     occupation numbers 
     1.0000   1.0000   1.0000   1.0000   1.0000   1.0000   1.0000   1.0000
    -0.0000  -0.0000  -0.0000  -0.0000

          k =-0.2500 0.1443 0.0000     band energies (ev):

   -11.5436 -11.2554  -0.7593   0.1284   0.2286   1.6097   2.1806   2.3456
    12.5183  13.8144  14.5877  14.7963

     occupation numbers 
     1.0000   1.0000   1.0000   1.0000   1.0000   1.0000   1.0000   1.0000
    -0.0000  -0.0000  -0.0000  -0.0000

          k = 0.2500 0.1443 0.0000     band energies (ev):

   -11.5443 -11.2564  -0.8344   0.1315   0.2307   1.7027   2.1845   2.3446
    12.5190  13.7691  14.6242  14.8392

     occupation numbers 
     1.0000   1.0000   1.0000   1.0000   1.0000   1.0000   1.0000   1.0000
    -0.0000  -0.0000  -0.0000  -0.0000

          k = 0.5000-0.2887 0.0000     band energies (ev):

    -9.3990  -7.6168  -6.5410  -3.7563   0.2449   1.1184   4.0776   4.3839
     8.5049  10.4074  13.9769  15.4541

     occupation numbers 
     1.0000   1.0000   1.0000   1.0000   1.0000   1.0000   1.0000   1.0000
    -0.0000  -0.0000  -0.0000  -0.0000

          k =-0.5000-0.2887 0.0000     band energies (ev):

    -9.3987  -7.5718  -6.6344  -3.7563   0.3160   1.1176   4.1197   4.4132
     8.3822  10.4132  14.0140  15.4533

     occupation numbers 
     1.0000   1.0000   1.0000   1.0000   1.0000   1.0000   1.0000   1.0000
    -0.0000  -0.0000  -0.0000  -0.0000

          k =-0.2500 0.4330 0.0000     band energies (ev):

    -9.5371  -8.5503  -3.7984  -2.4663  -2.3214  -0.6490   3.3622   4.6720
     9.4268  11.3854  16.0421  18.5692

     occupation numbers 
     1.0000   1.0000   1.0000   1.0000   1.0000   1.0000   1.0000   1.0000
    -0.0000  -0.0000  -0.0000  -0.0000

          k = 0.5000-0.0000 0.0000     band energies (ev):

    -9.5371  -8.5521  -3.9199  -2.4544  -2.2000  -0.6493   3.3861   4.6975
     9.3246  11.3839  16.0465  18.7830

     occupation numbers 
     1.0000   1.0000   1.0000   1.0000   1.0000   1.0000   1.0000   1.0000
    -0.0000  -0.0000  -0.0000  -0.0000

     the Fermi energy is     7.0304 ev

!    total energy              =     -76.77366417 Ry
     Harris-Foulkes estimate   =     -76.77369458 Ry
     estimated scf accuracy    <       0.00006716 Ry

     total all-electron energy =      -311.840016 Ry

     The total energy is the sum of the following terms:

     one-electron contribution =     -14.38560978 Ry
     hartree contribution      =      15.80411797 Ry
     xc contribution           =     -16.78069739 Ry
     ewald contribution        =     -34.51187014 Ry
     DFT-D3 Dispersion         =      -0.02654533 Ry
     scf correction            =       0.00176411 Ry
     one-center paw contrib.   =     -26.87482362 Ry
      -> PAW hartree energy AE =      47.55610285 Ry
      -> PAW hartree energy PS =     -47.49142911 Ry
      -> PAW xc energy AE      =     -44.11911867 Ry
      -> PAW xc energy PS      =      17.17962131 Ry
      -> total E_H with PAW    =      15.86879172 Ry
      -> total E_XC with PAW   =     -43.72019476 Ry
     smearing contrib. (-TS)   =       0.00000000 Ry

     iteration #  7     ecut=    52.00 Ry     beta= 0.70
     Davidson diagonalization with overlap
     ethr =  4.20E-07,  avg # of iterations =  1.2

     total cpu time spent up to now is        8.1 secs

          k = 0.0000 0.0000 0.0000     band energies (ev):

   -12.9071 -12.5292  -1.5745   0.6329   3.4898   3.7976   4.0372   4.0394
    10.6878  14.7867  15.1869  16.3160

     occupation numbers 
     1.0000   1.0000   1.0000   1.0000   1.0000   1.0000   1.0000   1.0000
    -0.0000  -0.0000  -0.0000  -0.0000

          k = 0.0000 0.2887 0.0000     band energies (ev):

   -11.5347 -11.2426  -0.6863   0.1311   0.2338   1.5657   2.1824   2.3504
    12.5221  13.8552  14.5772  14.7883

     occupation numbers 
     1.0000   1.0000   1.0000   1.0000   1.0000   1.0000   1.0000   1.0000
    -0.0000  -0.0000  -0.0000  -0.0000

          k = 0.0000-0.5774 0.0000     band energies (ev):

    -9.3963  -7.6243  -6.4657  -3.7492   0.2185   1.1238   4.0524   4.3718
     8.5907  10.4148  13.9748  15.4630

     occupation numbers 
     1.0000   1.0000   1.0000   1.0000   1.0000   1.0000   1.0000   1.0000
    -0.0000  -0.0000  -0.0000  -0.0000

          k = 0.2500 0.4330 0.0000     band energies (ev):

    -9.5342  -8.5338  -3.8546  -2.4500  -2.2295  -0.6425   3.3809   4.6904
     9.3753  11.3943  16.0491  18.6665

     occupation numbers 
     1.0000   1.0000   1.0000   1.0000   1.0000   1.0000   1.0000   1.0000
    -0.0000  -0.0000  -0.0000  -0.0000

          k =-0.2500 0.1443 0.0000     band energies (ev):

   -11.5352 -11.2433  -0.7390   0.1328   0.2346   1.6317   2.1850   2.3510
    12.5226  13.8263  14.5976  14.8051

     occupation numbers 
     1.0000   1.0000   1.0000   1.0000   1.0000   1.0000   1.0000   1.0000
    -0.0000  -0.0000  -0.0000  -0.0000

          k = 0.2500 0.1443 0.0000     band energies (ev):

   -11.5358 -11.2444  -0.8140   0.1361   0.2368   1.7246   2.1889   2.3499
    12.5233  13.7810  14.6319  14.8501

     occupation numbers 
     1.0000   1.0000   1.0000   1.0000   1.0000   1.0000   1.0000   1.0000
    -0.0000  -0.0000  -0.0000  -0.0000

          k = 0.5000-0.2887 0.0000     band energies (ev):

    -9.3965  -7.5986  -6.5233  -3.7492   0.2665   1.1242   4.0826   4.3860
     8.5141  10.4170  13.9914  15.4625

     occupation numbers 
     1.0000   1.0000   1.0000   1.0000   1.0000   1.0000   1.0000   1.0000
    -0.0000  -0.0000  -0.0000  -0.0000

          k =-0.5000-0.2887 0.0000     band energies (ev):

    -9.3963  -7.5538  -6.6164  -3.7489   0.3374   1.1234   4.1231   4.4167
     8.3915  10.4229  14.0284  15.4617

     occupation numbers 
     1.0000   1.0000   1.0000   1.0000   1.0000   1.0000   1.0000   1.0000
    -0.0000  -0.0000  -0.0000  -0.0000

          k =-0.2500 0.4330 0.0000     band energies (ev):

    -9.5343  -8.5328  -3.7790  -2.4580  -2.3040  -0.6420   3.3665   4.6750
     9.4375  11.3948  16.0460  18.5815

     occupation numbers 
     1.0000   1.0000   1.0000   1.0000   1.0000   1.0000   1.0000   1.0000
    -0.0000  -0.0000  -0.0000  -0.0000

          k = 0.5000-0.0000 0.0000     band energies (ev):

    -9.5343  -8.5345  -3.9004  -2.4474  -2.1813  -0.6424   3.3901   4.7007
     9.3354  11.3932  16.0503  18.7948

     occupation numbers 
     1.0000   1.0000   1.0000   1.0000   1.0000   1.0000   1.0000   1.0000
    -0.0000  -0.0000  -0.0000  -0.0000

     the Fermi energy is     7.0427 ev

!    total energy              =     -76.77366598 Ry
     Harris-Foulkes estimate   =     -76.77367006 Ry
     estimated scf accuracy    <       0.00000777 Ry

     total all-electron energy =      -311.840018 Ry

     The total energy is the sum of the following terms:

     one-electron contribution =     -14.38981437 Ry
     hartree contribution      =      15.81027318 Ry
     xc contribution           =     -16.78230571 Ry
     ewald contribution        =     -34.51187014 Ry
     DFT-D3 Dispersion         =      -0.02654533 Ry
     scf correction            =       0.00159489 Ry
     one-center paw contrib.   =     -26.87499851 Ry
      -> PAW hartree energy AE =      47.55587532 Ry
      -> PAW hartree energy PS =     -47.49118743 Ry
      -> PAW xc energy AE      =     -44.12116503 Ry
      -> PAW xc energy PS      =      17.18147864 Ry
      -> total E_H with PAW    =      15.87496107 Ry
      -> total E_XC with PAW   =     -43.72199210 Ry
     smearing contrib. (-TS)   =       0.00000000 Ry

     iteration #  8     ecut=    52.00 Ry     beta= 0.70
     Davidson diagonalization with overlap
     ethr =  4.86E-08,  avg # of iterations =  3.2

     total cpu time spent up to now is        8.6 secs

     End of self-consistent calculation

          k = 0.0000 0.0000 0.0000 (  1541 PWs)   bands (ev):

   -12.8978 -12.5286  -1.5702   0.6340   3.5073   3.8148   4.0332   4.0354
    10.6865  14.8018  15.2019  16.3143

     occupation numbers 
     1.0000   1.0000   1.0000   1.0000   1.0000   1.0000   1.0000   1.0000
    -0.0000  -0.0000  -0.0000  -0.0000

          k = 0.0000 0.2887 0.0000 (  1519 PWs)   bands (ev):

   -11.5322 -11.2351  -0.6706   0.1321   0.2337   1.5825   2.1834   2.3467
    12.5209  13.8656  14.5841  14.7931

     occupation numbers 
     1.0000   1.0000   1.0000   1.0000   1.0000   1.0000   1.0000   1.0000
    -0.0000  -0.0000  -0.0000  -0.0000

          k = 0.0000-0.5774 0.0000 (  1500 PWs)   bands (ev):

    -9.4007  -7.6097  -6.4513  -3.7520   0.2350   1.1203   4.0568   4.3724
     8.5999  10.4139  13.9873  15.4613

     occupation numbers 
     1.0000   1.0000   1.0000   1.0000   1.0000   1.0000   1.0000   1.0000
    -0.0000  -0.0000  -0.0000  -0.0000

          k = 0.2500 0.4330 0.0000 (  1499 PWs)   bands (ev):

    -9.5384  -8.5197  -3.8392  -2.4520  -2.2154  -0.6456   3.3841   4.6919
     9.3855  11.3934  16.0481  18.6698

     occupation numbers 
     1.0000   1.0000   1.0000   1.0000   1.0000   1.0000   1.0000   1.0000
    -0.0000  -0.0000  -0.0000  -0.0000

          k =-0.2500 0.1443 0.0000 (  1519 PWs)   bands (ev):

   -11.5327 -11.2359  -0.7232   0.1337   0.2347   1.6485   2.1860   2.3474
    12.5214  13.8367  14.6033  14.8111

     occupation numbers 
     1.0000   1.0000   1.0000   1.0000   1.0000   1.0000   1.0000   1.0000
    -0.0000  -0.0000  -0.0000  -0.0000

          k = 0.2500 0.1443 0.0000 (  1519 PWs)   bands (ev):

   -11.5333 -11.2370  -0.7980   0.1367   0.2370   1.7412   2.1899   2.3463
    12.5221  13.7915  14.6350  14.8585

     occupation numbers 
     1.0000   1.0000   1.0000   1.0000   1.0000   1.0000   1.0000   1.0000
    -0.0000  -0.0000  -0.0000  -0.0000

          k = 0.5000-0.2887 0.0000 (  1500 PWs)   bands (ev):

    -9.4009  -7.5839  -6.5089  -3.7521   0.2830   1.1208   4.0859   4.3876
     8.5233  10.4162  14.0038  15.4608

     occupation numbers 
     1.0000   1.0000   1.0000   1.0000   1.0000   1.0000   1.0000   1.0000
    -0.0000  -0.0000  -0.0000  -0.0000

          k =-0.5000-0.2887 0.0000 (  1500 PWs)   bands (ev):

    -9.4007  -7.5394  -6.6016  -3.7517   0.3538   1.1200   4.1244   4.4203
     8.4009  10.4220  14.0407  15.4600

     occupation numbers 
     1.0000   1.0000   1.0000   1.0000   1.0000   1.0000   1.0000   1.0000
    -0.0000  -0.0000  -0.0000  -0.0000

          k =-0.2500 0.4330 0.0000 (  1499 PWs)   bands (ev):

    -9.5385  -8.5186  -3.7638  -2.4587  -2.2911  -0.6450   3.3699   4.6764
     9.4477  11.3939  16.0450  18.5880

     occupation numbers 
     1.0000   1.0000   1.0000   1.0000   1.0000   1.0000   1.0000   1.0000
    -0.0000  -0.0000  -0.0000  -0.0000

          k = 0.5000-0.0000 0.0000 (  1499 PWs)   bands (ev):

    -9.5385  -8.5203  -3.8850  -2.4498  -2.1668  -0.6455   3.3932   4.7024
     9.3456  11.3923  16.0493  18.8029

     occupation numbers 
     1.0000   1.0000   1.0000   1.0000   1.0000   1.0000   1.0000   1.0000
    -0.0000  -0.0000  -0.0000  -0.0000

     the Fermi energy is     7.0512 ev

!    total energy              =     -76.77367078 Ry
     Harris-Foulkes estimate   =     -76.77367121 Ry
     estimated scf accuracy    <       0.00000060 Ry

     total all-electron energy =      -311.840023 Ry

     The total energy is the sum of the following terms:

     one-electron contribution =     -14.38773281 Ry
     hartree contribution      =      15.80953758 Ry
     xc contribution           =     -16.78200742 Ry
     ewald contribution        =     -34.51187014 Ry
     DFT-D3 Dispersion         =      -0.02654533 Ry
     one-center paw contrib.   =     -26.87505265 Ry
      -> PAW hartree energy AE =      47.53847606 Ry
      -> PAW hartree energy PS =     -47.47379373 Ry
      -> PAW xc energy AE      =     -44.11721921 Ry
      -> PAW xc energy PS      =      17.17748423 Ry
      -> total E_H with PAW    =      15.87421991 Ry
      -> total E_XC with PAW   =     -43.72174241 Ry
     smearing contrib. (-TS)   =       0.00000000 Ry

     convergence has been achieved in   8 iterations

     Forces acting on atoms (cartesian axes, Ry/au):

     atom    1 type  2   force =    -0.00023252   -0.00008436   -0.00283974
     atom    2 type  3   force =     0.00020285    0.00002936   -0.00306679
     atom    3 type  1   force =     0.01391125    0.01775373    0.00292243
     atom    4 type  1   force =    -0.01388157   -0.01769872    0.00298410
     The non-local contrib.  to forces
     atom    1 type  2   force =    -0.00018582   -0.00000731   -0.00025659
     atom    2 type  3   force =     0.00019958    0.00000341   -0.00564937
     atom    3 type  1   force =     0.01582998    0.02010471    0.00266895
     atom    4 type  1   force =    -0.01584400   -0.02008692    0.00264825
     The ionic contribution  to forces
     atom    1 type  2   force =    -0.00062404   -0.00007115   -1.04021585
     atom    2 type  3   force =     0.00055112   -0.00002634   -1.73601626
     atom    3 type  1   force =     0.04409984    0.05571416    1.38676185
     atom    4 type  1   force =    -0.04402693   -0.05561666    1.38947026
     The local contribution  to forces
     atom    1 type  2   force =     0.00059846    0.00001512    1.03927961
     atom    2 type  3   force =    -0.00057622    0.00003271    1.73940820
     atom    3 type  1   force =    -0.04548675   -0.05741037   -1.38762613
     atom    4 type  1   force =     0.04545777    0.05732470   -1.39057654
     The core correction contribution to forces
     atom    1 type  2   force =    -0.00004249   -0.00003580   -0.00087659
     atom    2 type  3   force =    -0.00000211    0.00000053    0.00007277
     atom    3 type  1   force =    -0.00056058   -0.00068863   -0.00016357
     atom    4 type  1   force =     0.00051635    0.00066796   -0.00005611
     The Hubbard contrib.    to forces
     atom    1 type  2   force =     0.00000000    0.00000000    0.00000000
     atom    2 type  3   force =     0.00000000    0.00000000    0.00000000
     atom    3 type  1   force =     0.00000000    0.00000000    0.00000000
     atom    4 type  1   force =     0.00000000    0.00000000    0.00000000
     The SCF correction term to forces
     atom    1 type  2   force =     0.00000109   -0.00000031   -0.00058875
     atom    2 type  3   force =     0.00000942    0.00000295   -0.00125062
     atom    3 type  1   force =     0.00001738    0.00003101    0.00116071
     atom    4 type  1   force =    -0.00001532   -0.00001688    0.00115733

     DFT-D3 dispersion contribution to forces:
     atom    1 type  2   force =    -0.00000054   -0.00000070   -0.00034369
     atom    2 type  3   force =     0.00000024    0.00000032    0.00020638
     atom    3 type  1   force =    -0.00000944   -0.00001293   -0.00004150
     atom    4 type  1   force =     0.00000975    0.00001331    0.00017881

     Total force =     0.032399     Total SCF correction =     0.002145

     DFT-D3 dispersion Force =     0.000442


     Computing stress (Cartesian axis) and pressure

          total   stress  (Ry/bohr**3)                   (kbar)     P=       62.15
   0.00056665   0.00002514   0.00000021           83.36        3.70        0.03
   0.00002514   0.00050071   0.00000032            3.70       73.66        0.05
   0.00000021   0.00000032   0.00020015            0.03        0.05       29.44

     kinetic stress (kbar)  11809.46     -9.14      0.04
                               -9.14  11833.72      0.05
                                0.04      0.05  13336.20

     local   stress (kbar) -24546.60    -59.43     -0.23
                              -59.43 -24388.90     -0.31
                               -0.23     -0.31  20218.71

     nonloc. stress (kbar)   4315.87      3.51      0.00
                                3.51   4306.57      0.00
                                0.00      0.00   3958.31

     hartree stress (kbar)   7996.93      8.13      0.07
                                8.13   7975.40      0.10
                                0.07      0.10  -6221.21

     exc-cor stress (kbar)  -1536.66      0.32      0.00
                                0.32  -1537.50      0.00
                                0.00      0.00  -1650.98

     corecor stress (kbar)  -1467.63     -0.30     -0.01
                               -0.30  -1466.93     -0.01
                               -0.01     -0.01  -1425.15

     ewald   stress (kbar)   3519.42     60.63      0.15
                               60.63   3358.68      0.20
                                0.15      0.20 -28164.58

     hubbard stress (kbar)      0.00      0.00      0.00
                                0.00      0.00      0.00
                                0.00      0.00      0.00

     london  stress (kbar)      0.00      0.00      0.00
                                0.00      0.00      0.00
                                0.00      0.00      0.00

     DFT-D3  stress (kbar)     -7.42     -0.01      0.00
                               -0.01     -7.38      0.00
                                0.00      0.00    -21.86

     XDM     stress (kbar)      0.00      0.00      0.00
                                0.00      0.00      0.00
                                0.00      0.00      0.00

     dft-nl  stress (kbar)      0.00      0.00      0.00
                                0.00      0.00      0.00
                                0.00      0.00      0.00

     TS-vdW  stress (kbar)      0.00      0.00      0.00
                                0.00      0.00      0.00
                                0.00      0.00      0.00



     BFGS Geometry Optimization

     number of scf cycles    =   1
     number of bfgs steps    =   0

     enthalpy new            =     -76.7736707759 Ry

     new trust radius        =       0.0437985066 bohr
     new conv_thr            =       0.0000010000 Ry

     new unit-cell volume =    246.13402 a.u.^3 (    36.47330 Ang^3 )
     density =      2.22384 g/cm^3

CELL_PARAMETERS (alat=  4.66384410)
   1.014166285   0.000628605   0.000005263
  -0.506538754   0.876551721   0.000004391
   0.000014287   0.000022013   2.728332700

ATOMIC_POSITIONS (crystal)
B             0.3422590328        0.6712754167        0.4458518136
N             0.6756612360        0.3379677199        0.4457451727
C             0.0097540992        0.0052326525        0.9137042120
C             0.3371519364        0.6669143566        0.9136837159



     Writing output data file ./Gr_BN.save/
     NEW-OLD atomic charge density approx. for the potential

     Check: negative core charge=   -0.000050
     extrapolated charge   16.49610, renormalised to   16.00000

     total cpu time spent up to now is       17.4 secs

     Self-consistent Calculation

     iteration #  1     ecut=    52.00 Ry     beta= 0.70
     Davidson diagonalization with overlap
     c_bands:  1 eigenvalues not converged
     c_bands:  1 eigenvalues not converged
     ethr =  1.00E-06,  avg # of iterations = 10.3

     total cpu time spent up to now is       20.2 secs

          k = 0.0000 0.0000 0.0000     band energies (ev):

   -12.3167 -11.8420  -1.5051   0.9316   3.9278   4.3917   4.7230   4.7317
     9.8955  14.7968  15.4135  16.0799

     occupation numbers 
     1.0000   1.0000   1.0000   1.0000   1.0000   1.0000   1.0000   1.0000
    -0.0000  -0.0000  -0.0000  -0.0000

          k =-0.0002 0.2851-0.0000     band energies (ev):

   -10.9186 -10.5979  -0.3434   0.2319   0.7982   2.2988   2.4759   3.0231
    11.7176  13.5898  14.5131  14.7313

     occupation numbers 
     1.0000   1.0000   1.0000   1.0000   1.0000   1.0000   1.0000   1.0000
    -0.0000  -0.0000  -0.0000  -0.0000

          k = 0.0004-0.5702 0.0000     band energies (ev):

    -8.6768  -7.0265  -6.0994  -3.1808   0.9293   1.8010   4.2275   4.6434
     8.3206  10.1505  13.8237  15.0068

     occupation numbers 
     1.0000   1.0000   1.0000   1.0000   1.0000   1.0000   1.0000   1.0000
    -0.0000  -0.0000  -0.0000  -0.0000

          k = 0.2462 0.4275-0.0000     band energies (ev):

    -8.8350  -8.0099  -3.3437  -1.8404  -1.6559  -0.0540   3.4182   4.9589
     9.3083  11.1714  15.1943  18.0092

     occupation numbers 
     1.0000   1.0000   1.0000   1.0000   1.0000   1.0000   1.0000   1.0000
    -0.0000  -0.0000  -0.0000  -0.0000

          k =-0.2466 0.1427 0.0000     band energies (ev):

   -10.9201 -10.5996  -0.2819   0.2252   0.7927   2.2284   2.4696   3.0313
    11.7159  13.6243  14.4878  14.6915

     occupation numbers 
     1.0000   1.0000   1.0000   1.0000   1.0000   1.0000   1.0000   1.0000
    -0.0000  -0.0000  -0.0000  -0.0000

          k = 0.2464 0.1424-0.0000     band energies (ev):

   -10.9227 -10.6024  -0.1498   0.2140   0.7823   2.0728   2.4590   3.0473
    11.7130  13.6843  14.4496  14.6548

     occupation numbers 
     1.0000   1.0000   1.0000   1.0000   1.0000   1.0000   1.0000   1.0000
    -0.0000  -0.0000  -0.0000  -0.0000

          k = 0.4932-0.2854-0.0000     band energies (ev):

    -8.6830  -7.1098  -5.9789  -3.1835   0.8795   1.8133   4.1696   4.6161
     8.4313  10.1443  13.8036  15.0276

     occupation numbers 
     1.0000   1.0000   1.0000   1.0000   1.0000   1.0000   1.0000   1.0000
    -0.0000  -0.0000  -0.0000  -0.0000

          k =-0.4928-0.2848 0.0000     band energies (ev):

    -8.6931  -7.2329  -5.7813  -3.1886   0.7759   1.8349   4.0669   4.5825
     8.6169  10.1319  13.7847  15.0620

     occupation numbers 
     1.0000   1.0000   1.0000   1.0000   1.0000   1.0000   1.0000   1.0000
    -0.0000  -0.0000  -0.0000  -0.0000

          k =-0.2468 0.4278-0.0000     band energies (ev):

    -8.8286  -7.9921  -3.5036  -1.8374  -1.5132  -0.0531   3.4531   4.9905
     9.2083  11.1591  15.2056  18.0831

     occupation numbers 
     1.0000   1.0000   1.0000   1.0000   1.0000   1.0000   1.0000   1.0000
    -0.0000  -0.0000  -0.0000  -0.0000

          k = 0.4930-0.0003-0.0000     band energies (ev):

    -8.8388  -8.0194  -3.2479  -1.8548  -1.7273  -0.0554   3.3976   4.9410
     9.3650  11.1800  15.1865  17.9607

     occupation numbers 
     1.0000   1.0000   1.0000   1.0000   1.0000   1.0000   1.0000   1.0000
    -0.0000  -0.0000  -0.0000  -0.0000

     the Fermi energy is     6.8192 ev

!    total energy              =     -76.74500132 Ry
     Harris-Foulkes estimate   =     -76.42346421 Ry
     estimated scf accuracy    <       0.02081366 Ry

     total all-electron energy =      -311.811354 Ry

     The total energy is the sum of the following terms:

     one-electron contribution =     -13.63874978 Ry
     hartree contribution      =      14.96592566 Ry
     xc contribution           =     -16.52566497 Ry
     ewald contribution        =     -34.44331441 Ry
     DFT-D3 Dispersion         =      -0.02601268 Ry
     scf correction            =      -0.22419810 Ry
     one-center paw contrib.   =     -26.85298705 Ry
      -> PAW hartree energy AE =      45.32999303 Ry
      -> PAW hartree energy PS =     -45.26919550 Ry
      -> PAW xc energy AE      =     -43.64311951 Ry
      -> PAW xc energy PS      =      16.72933493 Ry
      -> total E_H with PAW    =      15.02672319 Ry
      -> total E_XC with PAW   =     -43.43944954 Ry
     smearing contrib. (-TS)   =       0.00000000 Ry

     iteration #  2     ecut=    52.00 Ry     beta= 0.70
     Davidson diagonalization with overlap
     ethr =  1.30E-04,  avg # of iterations =  4.0

     total cpu time spent up to now is       20.8 secs

          k = 0.0000 0.0000 0.0000     band energies (ev):

   -13.5510 -13.0395  -1.8877   0.0878   2.6553   2.6665   2.7582   3.1569
    10.3923  13.8278  14.4018  15.1936

     occupation numbers 
     1.0000   1.0000   1.0000   1.0000   1.0000   1.0000   1.0000   1.0000
    -0.0000  -0.0000  -0.0000  -0.0000

          k =-0.0002 0.2851-0.0000     band energies (ev):

   -12.3987 -11.6423  -1.3972  -0.9397  -0.2101   1.0918   1.1503   1.5585
    12.1559  12.9568  13.5579  13.8539

     occupation numbers 
     1.0000   1.0000   1.0000   1.0000   1.0000   1.0000   1.0000   1.0000
    -0.0000  -0.0000  -0.0000  -0.0000

          k = 0.0004-0.5702 0.0000     band energies (ev):

   -10.5280  -8.0027  -6.9966  -4.5890  -0.2192  -0.0299   3.1623   3.9227
     7.8269   9.8315  13.0481  14.3370

     occupation numbers 
     1.0000   1.0000   1.0000   1.0000   1.0000   1.0000   1.0000   1.0000
    -0.0000  -0.0000  -0.0000  -0.0000

          k = 0.2462 0.4275-0.0000     band energies (ev):

   -10.6453  -8.9378  -4.3666  -3.3828  -2.6931  -1.6558   2.6878   3.9257
     8.7902  10.6573  15.5289  18.1562

     occupation numbers 
     1.0000   1.0000   1.0000   1.0000   1.0000   1.0000   1.0000   1.0000
    -0.0000  -0.0000  -0.0000  -0.0000

          k =-0.2466 0.1427 0.0000     band energies (ev):

   -12.4006 -11.6432  -1.3463  -0.9445  -0.2156   1.0568   1.1314   1.5518
    12.1554  12.9856  13.5525  13.8162

     occupation numbers 
     1.0000   1.0000   1.0000   1.0000   1.0000   1.0000   1.0000   1.0000
    -0.0000  -0.0000  -0.0000  -0.0000

          k = 0.2464 0.1424-0.0000     band energies (ev):

   -12.4037 -11.6446  -1.2418  -0.9525  -0.2247   0.9340   1.1398   1.5408
    12.1544  13.0346  13.5473  13.7836

     occupation numbers 
     1.0000   1.0000   1.0000   1.0000   1.0000   1.0000   1.0000   1.0000
    -0.0000  -0.0000  -0.0000  -0.0000

          k = 0.4932-0.2854-0.0000     band energies (ev):

   -10.5340  -8.0570  -6.9137  -4.5917  -0.2597  -0.0187   3.1546   3.8517
     7.9277   9.8265  13.0461  14.3595

     occupation numbers 
     1.0000   1.0000   1.0000   1.0000   1.0000   1.0000   1.0000   1.0000
    -0.0000  -0.0000  -0.0000  -0.0000

          k =-0.4928-0.2848 0.0000     band energies (ev):

   -10.5437  -8.1399  -6.7745  -4.5966  -0.3435   0.0016   3.1429   3.7363
     8.0979   9.8168  13.0577  14.3983

     occupation numbers 
     1.0000   1.0000   1.0000   1.0000   1.0000   1.0000   1.0000   1.0000
    -0.0000  -0.0000  -0.0000  -0.0000

          k =-0.2468 0.4278-0.0000     band energies (ev):

   -10.6394  -8.9261  -4.4850  -3.3888  -2.5764  -1.6562   2.7061   3.9676
     8.6992  10.6490  15.5413  18.2064

     occupation numbers 
     1.0000   1.0000   1.0000   1.0000   1.0000   1.0000   1.0000   1.0000
    -0.0000  -0.0000  -0.0000  -0.0000

          k = 0.4930-0.0003-0.0000     band energies (ev):

   -10.6488  -8.9447  -4.2958  -3.3786  -2.7614  -1.6564   2.6764   3.9022
     8.8418  10.6631  15.5206  18.1087

     occupation numbers 
     1.0000   1.0000   1.0000   1.0000   1.0000   1.0000   1.0000   1.0000
    -0.0000  -0.0000  -0.0000  -0.0000

     the Fermi energy is     6.4335 ev

!    total energy              =     -76.77085095 Ry
     Harris-Foulkes estimate   =     -76.79330541 Ry
     estimated scf accuracy    <       0.06176228 Ry

     total all-electron energy =      -311.837203 Ry

     The total energy is the sum of the following terms:

     one-electron contribution =     -14.94176553 Ry
     hartree contribution      =      15.31515064 Ry
     xc contribution           =     -16.60131439 Ry
     ewald contribution        =     -34.44331441 Ry
     DFT-D3 Dispersion         =      -0.02601268 Ry
     scf correction            =       0.78669682 Ry
     one-center paw contrib.   =     -26.86029140 Ry
      -> PAW hartree energy AE =      45.71951901 Ry
      -> PAW hartree energy PS =     -45.65762679 Ry
      -> PAW xc energy AE      =     -43.70395314 Ry
      -> PAW xc energy PS      =      16.78176951 Ry
      -> total E_H with PAW    =      15.37704286 Ry
      -> total E_XC with PAW   =     -43.52349801 Ry
     smearing contrib. (-TS)   =       0.00000000 Ry

     iteration #  3     ecut=    52.00 Ry     beta= 0.70
     Davidson diagonalization with overlap
     ethr =  1.30E-04,  avg # of iterations =  2.5

     total cpu time spent up to now is       21.2 secs

          k = 0.0000 0.0000 0.0000     band energies (ev):

   -13.1602 -12.8440  -1.7625   0.3530   2.8358   3.2339   3.3221   3.3339
    10.3998  13.8834  14.4573  15.6146

     occupation numbers 
     1.0000   1.0000   1.0000   1.0000   1.0000   1.0000   1.0000   1.0000
    -0.0000  -0.0000  -0.0000  -0.0000

          k =-0.0002 0.2851-0.0000     band energies (ev):

   -11.8826 -11.5473  -1.3258  -0.3853  -0.0559   1.2018   1.7212   1.8425
    12.1838  13.0240  13.8025  14.0031

     occupation numbers 
     1.0000   1.0000   1.0000   1.0000   1.0000   1.0000   1.0000   1.0000
    -0.0000  -0.0000  -0.0000  -0.0000

          k = 0.0004-0.5702 0.0000     band energies (ev):

    -9.9006  -7.9457  -6.9388  -4.1362  -0.1439   0.5474   3.6637   3.9944
     7.8686   9.9648  13.0899  14.5960

     occupation numbers 
     1.0000   1.0000   1.0000   1.0000   1.0000   1.0000   1.0000   1.0000
    -0.0000  -0.0000  -0.0000  -0.0000

          k = 0.2462 0.4275-0.0000     band energies (ev):

   -10.0303  -8.8802  -4.3035  -2.8872  -2.6237  -1.1465   2.9799   4.2000
     8.8176  10.8380  15.5889  18.1238

     occupation numbers 
     1.0000   1.0000   1.0000   1.0000   1.0000   1.0000   1.0000   1.0000
    -0.0000  -0.0000  -0.0000  -0.0000

          k =-0.2466 0.1427 0.0000     band energies (ev):

   -11.8842 -11.5484  -1.2750  -0.3915  -0.0621   1.1412   1.7303   1.8366
    12.1828  13.0547  13.7720  13.9888

     occupation numbers 
     1.0000   1.0000   1.0000   1.0000   1.0000   1.0000   1.0000   1.0000
    -0.0000  -0.0000  -0.0000  -0.0000

          k = 0.2464 0.1424-0.0000     band energies (ev):

   -11.8870 -11.5501  -1.1695  -0.4022  -0.0724   1.0117   1.7471   1.8267
    12.1837  13.1085  13.7431  13.9763

     occupation numbers 
     1.0000   1.0000   1.0000   1.0000   1.0000   1.0000   1.0000   1.0000
    -0.0000  -0.0000  -0.0000  -0.0000

          k = 0.4932-0.2854-0.0000     band energies (ev):

    -9.9064  -7.9991  -6.8574  -4.1397  -0.1850   0.5596   3.6412   3.9382
     7.9685   9.9598  13.0879  14.6191

     occupation numbers 
     1.0000   1.0000   1.0000   1.0000   1.0000   1.0000   1.0000   1.0000
    -0.0000  -0.0000  -0.0000  -0.0000

          k =-0.4928-0.2848 0.0000     band energies (ev):

    -9.9163  -8.0808  -6.7206  -4.1452  -0.2689   0.5817   3.5925   3.8604
     8.1380   9.9499  13.0998  14.6578

     occupation numbers 
     1.0000   1.0000   1.0000   1.0000   1.0000   1.0000   1.0000   1.0000
    -0.0000  -0.0000  -0.0000  -0.0000

          k =-0.2468 0.4278-0.0000     band energies (ev):

   -10.0244  -8.8685  -4.4205  -2.8903  -2.5109  -1.1472   3.0079   4.2329
     8.7262  10.8299  15.6018  18.2005

     occupation numbers 
     1.0000   1.0000   1.0000   1.0000   1.0000   1.0000   1.0000   1.0000
    -0.0000  -0.0000  -0.0000  -0.0000

          k = 0.4930-0.0003-0.0000     band energies (ev):

   -10.0339  -8.8869  -4.2336  -2.8865  -2.6880  -1.1467   2.9632   4.1815
     8.8694  10.8439  15.5799  18.0670

     occupation numbers 
     1.0000   1.0000   1.0000   1.0000   1.0000   1.0000   1.0000   1.0000
    -0.0000  -0.0000  -0.0000  -0.0000

     the Fermi energy is     6.5763 ev

!    total energy              =     -76.77371004 Ry
     Harris-Foulkes estimate   =     -76.77590555 Ry
     estimated scf accuracy    <       0.00839323 Ry

     total all-electron energy =      -311.840062 Ry

     The total energy is the sum of the following terms:

     one-electron contribution =     -14.60507463 Ry
     hartree contribution      =      15.44892935 Ry
     xc contribution           =     -16.63230343 Ry
     ewald contribution        =     -34.44331441 Ry
     DFT-D3 Dispersion         =      -0.02601268 Ry
     scf correction            =       0.34822171 Ry
     one-center paw contrib.   =     -26.86415596 Ry
      -> PAW hartree energy AE =      45.85273738 Ry
      -> PAW hartree energy PS =     -45.79035827 Ry
      -> PAW xc energy AE      =     -43.72850694 Ry
      -> PAW xc energy PS      =      16.80197187 Ry
      -> total E_H with PAW    =      15.51130846 Ry
      -> total E_XC with PAW   =     -43.55883850 Ry
     smearing contrib. (-TS)   =       0.00000000 Ry

     iteration #  4     ecut=    52.00 Ry     beta= 0.70
     Davidson diagonalization with overlap
     ethr =  5.25E-05,  avg # of iterations =  1.0

     total cpu time spent up to now is       21.6 secs

          k = 0.0000 0.0000 0.0000     band energies (ev):

   -13.0532 -12.7343  -1.7054   0.4294   2.9777   3.3737   3.4625   3.4744
    10.4037  14.0051  14.5779  15.7008

     occupation numbers 
     1.0000   1.0000   1.0000   1.0000   1.0000   1.0000   1.0000   1.0000
    -0.0000  -0.0000  -0.0000  -0.0000

          k =-0.0002 0.2851-0.0000     band energies (ev):

   -11.7718 -11.4337  -1.1960  -0.2720   0.0065   1.3372   1.8484   1.9260
    12.1919  13.1118  13.8969  14.0903

     occupation numbers 
     1.0000   1.0000   1.0000   1.0000   1.0000   1.0000   1.0000   1.0000
    -0.0000  -0.0000  -0.0000  -0.0000

          k = 0.0004-0.5702 0.0000     band energies (ev):

    -9.7720  -7.8284  -6.8194  -4.0479  -0.0102   0.6680   3.7561   4.0816
     7.9484   9.9780  13.1906  14.6423

     occupation numbers 
     1.0000   1.0000   1.0000   1.0000   1.0000   1.0000   1.0000   1.0000
    -0.0000  -0.0000  -0.0000  -0.0000

          k = 0.2462 0.4275-0.0000     band energies (ev):

    -9.9047  -8.7635  -4.1793  -2.7859  -2.4997  -1.0440   3.0563   4.3011
     8.8973  10.8651  15.6037  18.1530

     occupation numbers 
     1.0000   1.0000   1.0000   1.0000   1.0000   1.0000   1.0000   1.0000
    -0.0000  -0.0000  -0.0000  -0.0000

          k =-0.2466 0.1427 0.0000     band energies (ev):

   -11.7735 -11.4348  -1.1458  -0.2781   0.0004   1.2773   1.8573   1.9201
    12.1910  13.1423  13.8693  14.0737

     occupation numbers 
     1.0000   1.0000   1.0000   1.0000   1.0000   1.0000   1.0000   1.0000
    -0.0000  -0.0000  -0.0000  -0.0000

          k = 0.2464 0.1424-0.0000     band energies (ev):

   -11.7762 -11.4365  -1.0418  -0.2890  -0.0098   1.1493   1.8742   1.9103
    12.1910  13.1956  13.8426  14.0600

     occupation numbers 
     1.0000   1.0000   1.0000   1.0000   1.0000   1.0000   1.0000   1.0000
    -0.0000  -0.0000  -0.0000  -0.0000

          k = 0.4932-0.2854-0.0000     band energies (ev):

    -9.7781  -7.8809  -6.7394  -4.0513  -0.0507   0.6800   3.7308   4.0285
     8.0478   9.9730  13.1890  14.6654

     occupation numbers 
     1.0000   1.0000   1.0000   1.0000   1.0000   1.0000   1.0000   1.0000
    -0.0000  -0.0000  -0.0000  -0.0000

          k =-0.4928-0.2848 0.0000     band energies (ev):

    -9.7878  -7.9614  -6.6048  -4.0573  -0.1335   0.7023   3.6767   3.9567
     8.2161   9.9630  13.2018  14.7041

     occupation numbers 
     1.0000   1.0000   1.0000   1.0000   1.0000   1.0000   1.0000   1.0000
    -0.0000  -0.0000  -0.0000  -0.0000

          k =-0.2468 0.4278-0.0000     band energies (ev):

    -9.8988  -8.7520  -4.2949  -2.7891  -2.3877  -1.0450   3.0846   4.3335
     8.8068  10.8565  15.6165  18.2289

     occupation numbers 
     1.0000   1.0000   1.0000   1.0000   1.0000   1.0000   1.0000   1.0000
    -0.0000  -0.0000  -0.0000  -0.0000

          k = 0.4930-0.0003-0.0000     band energies (ev):

    -9.9083  -8.7702  -4.1102  -2.7843  -2.5637  -1.0443   3.0394   4.2829
     8.9486  10.8712  15.5951  18.0971

     occupation numbers 
     1.0000   1.0000   1.0000   1.0000   1.0000   1.0000   1.0000   1.0000
    -0.0000  -0.0000  -0.0000  -0.0000

     the Fermi energy is     6.6342 ev

!    total energy              =     -76.77274370 Ry
     Harris-Foulkes estimate   =     -76.77406285 Ry
     estimated scf accuracy    <       0.00353656 Ry

     total all-electron energy =      -311.839096 Ry

     The total energy is the sum of the following terms:

     one-electron contribution =     -14.54285361 Ry
     hartree contribution      =      15.57267767 Ry
     xc contribution           =     -16.66046705 Ry
     ewald contribution        =     -34.44331441 Ry
     DFT-D3 Dispersion         =      -0.02601268 Ry
     scf correction            =       0.19475065 Ry
     one-center paw contrib.   =     -26.86752427 Ry
      -> PAW hartree energy AE =      45.95665390 Ry
      -> PAW hartree energy PS =     -45.89386113 Ry
      -> PAW xc energy AE      =     -43.74390569 Ry
      -> PAW xc energy PS      =      16.81358864 Ry
      -> total E_H with PAW    =      15.63547045 Ry
      -> total E_XC with PAW   =     -43.59078410 Ry
     smearing contrib. (-TS)   =       0.00000000 Ry

     iteration #  5     ecut=    52.00 Ry     beta= 0.70
     Davidson diagonalization with overlap
     ethr =  2.21E-05,  avg # of iterations =  4.3

     total cpu time spent up to now is       22.1 secs

          k = 0.0000 0.0000 0.0000     band energies (ev):

   -12.9608 -12.6265  -1.6573   0.5049   3.0783   3.4732   3.6192   3.6315
    10.4028  14.0912  14.6631  15.7951

     occupation numbers 
     1.0000   1.0000   1.0000   1.0000   1.0000   1.0000   1.0000   1.0000
    -0.0000  -0.0000  -0.0000  -0.0000

          k =-0.0002 0.2851-0.0000     band energies (ev):

   -11.6562 -11.3426  -1.1042  -0.1435   0.0615   1.4332   1.9923   2.0078
    12.1937  13.1751  13.9752  14.1756

     occupation numbers 
     1.0000   1.0000   1.0000   1.0000   1.0000   1.0000   1.0000   1.0000
    -0.0000  -0.0000  -0.0000  -0.0000

          k = 0.0004-0.5702 0.0000     band energies (ev):

    -9.6280  -7.7455  -6.7356  -3.9421   0.0847   0.8049   3.8454   4.1581
     8.0051  10.0074  13.2607  14.7026

     occupation numbers 
     1.0000   1.0000   1.0000   1.0000   1.0000   1.0000   1.0000   1.0000
    -0.0000  -0.0000  -0.0000  -0.0000

          k = 0.2462 0.4275-0.0000     band energies (ev):

    -9.7637  -8.6812  -4.0916  -2.6693  -2.4105  -0.9245   3.1251   4.3966
     8.9532  10.9079  15.6109  18.1695

     occupation numbers 
     1.0000   1.0000   1.0000   1.0000   1.0000   1.0000   1.0000   1.0000
    -0.0000  -0.0000  -0.0000  -0.0000

          k =-0.2466 0.1427 0.0000     band energies (ev):

   -11.6578 -11.3438  -1.0543  -0.1496   0.0554   1.3738   2.0012   2.0020
    12.1929  13.2056  13.9465  14.1603

     occupation numbers 
     1.0000   1.0000   1.0000   1.0000   1.0000   1.0000   1.0000   1.0000
    -0.0000  -0.0000  -0.0000  -0.0000

          k = 0.2464 0.1424-0.0000     band energies (ev):

   -11.6603 -11.3455  -0.9511  -0.1611   0.0452   1.2467   1.9922   2.0183
    12.1896  13.2587  13.9188  14.1457

     occupation numbers 
     1.0000   1.0000   1.0000   1.0000   1.0000   1.0000   1.0000   1.0000
    -0.0000  -0.0000  -0.0000  -0.0000

          k = 0.4932-0.2854-0.0000     band energies (ev):

    -9.6340  -7.7976  -6.6563  -3.9451   0.0445   0.8190   3.8140   4.1115
     8.1043  10.0025  13.2594  14.7260

     occupation numbers 
     1.0000   1.0000   1.0000   1.0000   1.0000   1.0000   1.0000   1.0000
    -0.0000  -0.0000  -0.0000  -0.0000

          k =-0.4928-0.2848 0.0000     band energies (ev):

    -9.6438  -7.8775  -6.5232  -3.9511  -0.0375   0.8413   3.7487   4.0514
     8.2718   9.9923  13.2726  14.7646

     occupation numbers 
     1.0000   1.0000   1.0000   1.0000   1.0000   1.0000   1.0000   1.0000
    -0.0000  -0.0000  -0.0000  -0.0000

          k =-0.2468 0.4278-0.0000     band energies (ev):

    -9.7579  -8.6698  -4.2063  -2.6718  -2.3000  -0.9254   3.1542   4.4278
     8.8629  10.8990  15.6233  17.9021

     occupation numbers 
     1.0000   1.0000   1.0000   1.0000   1.0000   1.0000   1.0000   1.0000
    -0.0000  -0.0000  -0.0000  -0.0000

          k = 0.4930-0.0003-0.0000     band energies (ev):

    -9.7674  -8.6879  -4.0230  -2.6686  -2.4733  -0.9249   3.1077   4.3790
     9.0043  10.9142  15.6022  18.1138

     occupation numbers 
     1.0000   1.0000   1.0000   1.0000   1.0000   1.0000   1.0000   1.0000
    -0.0000  -0.0000  -0.0000  -0.0000

     the Fermi energy is     6.6317 ev

!    total energy              =     -76.77362358 Ry
     Harris-Foulkes estimate   =     -76.77360963 Ry
     estimated scf accuracy    <       0.00014761 Ry

     total all-electron energy =      -311.839976 Ry

     The total energy is the sum of the following terms:

     one-electron contribution =     -14.41110787 Ry
     hartree contribution      =      15.56666020 Ry
     xc contribution           =     -16.65899443 Ry
     ewald contribution        =     -34.44331441 Ry
     DFT-D3 Dispersion         =      -0.02601268 Ry
     scf correction            =       0.06686012 Ry
     one-center paw contrib.   =     -26.86771452 Ry
      -> PAW hartree energy AE =      45.91847169 Ry
      -> PAW hartree energy PS =     -45.85568025 Ry
      -> PAW xc energy AE      =     -43.73961984 Ry
      -> PAW xc energy PS      =      16.80911388 Ry
      -> total E_H with PAW    =      15.62945164 Ry
      -> total E_XC with PAW   =     -43.58950038 Ry
     smearing contrib. (-TS)   =       0.00000000 Ry

     iteration #  6     ecut=    52.00 Ry     beta= 0.70
     Davidson diagonalization with overlap
     ethr =  9.23E-07,  avg # of iterations =  6.6

     total cpu time spent up to now is       22.7 secs

          k = 0.0000 0.0000 0.0000     band energies (ev):

   -12.9657 -12.6310  -1.6601   0.5019   3.0712   3.4663   3.6130   3.6254
    10.4017  14.0836  14.6561  15.7897

     occupation numbers 
     1.0000   1.0000   1.0000   1.0000   1.0000   1.0000   1.0000   1.0000
    -0.0000  -0.0000  -0.0000  -0.0000

          k =-0.0002 0.2851-0.0000     band energies (ev):

   -11.6607 -11.3481  -1.1105  -0.1468   0.0583   1.4266   1.9878   2.0039
    12.1909  13.1699  13.9708  14.1714

     occupation numbers 
     1.0000   1.0000   1.0000   1.0000   1.0000   1.0000   1.0000   1.0000
    -0.0000  -0.0000  -0.0000  -0.0000

          k = 0.0004-0.5702 0.0000     band energies (ev):

    -9.6341  -7.7516  -6.7416  -3.9424   0.0775   0.8012   3.8403   4.1520
     7.9997  10.0136  13.2550  14.7044

     occupation numbers 
     1.0000   1.0000   1.0000   1.0000   1.0000   1.0000   1.0000   1.0000
    -0.0000  -0.0000  -0.0000  -0.0000

          k = 0.2462 0.4275-0.0000     band energies (ev):

    -9.7697  -8.6871  -4.0977  -2.6712  -2.4165  -0.9262   3.1208   4.3902
     8.9485  10.9128  15.6097  18.0613

     occupation numbers 
     1.0000   1.0000   1.0000   1.0000   1.0000   1.0000   1.0000   1.0000
    -0.0000  -0.0000  -0.0000  -0.0000

          k =-0.2466 0.1427 0.0000     band energies (ev):

   -11.6623 -11.3492  -1.0607  -0.1531   0.0522   1.3669   1.9969   1.9981
    12.1900  13.2004  13.9419  14.1563

     occupation numbers 
     1.0000   1.0000   1.0000   1.0000   1.0000   1.0000   1.0000   1.0000
    -0.0000  -0.0000  -0.0000  -0.0000

          k = 0.2464 0.1424-0.0000     band energies (ev):

   -11.6650 -11.3510  -0.9574  -0.1645   0.0419   1.2396   1.9883   2.0139
    12.1885  13.2536  13.9136  14.1430

     occupation numbers 
     1.0000   1.0000   1.0000   1.0000   1.0000   1.0000   1.0000   1.0000
    -0.0000  -0.0000  -0.0000  -0.0000

          k = 0.4932-0.2854-0.0000     band energies (ev):

    -9.6401  -7.8037  -6.6624  -3.9457   0.0374   0.8142   3.8092   4.1054
     8.0990  10.0085  13.2536  14.7280

     occupation numbers 
     1.0000   1.0000   1.0000   1.0000   1.0000   1.0000   1.0000   1.0000
    -0.0000  -0.0000  -0.0000  -0.0000

          k =-0.4928-0.2848 0.0000     band energies (ev):

    -9.6499  -7.8836  -6.5290  -3.9515  -0.0447   0.8366   3.7440   4.0449
     8.2667   9.9984  13.2669  14.7665

     occupation numbers 
     1.0000   1.0000   1.0000   1.0000   1.0000   1.0000   1.0000   1.0000
    -0.0000  -0.0000  -0.0000  -0.0000

          k =-0.2468 0.4278-0.0000     band energies (ev):

    -9.7637  -8.6757  -4.2125  -2.6738  -2.3060  -0.9270   3.1500   4.4214
     8.8582  10.9041  15.6222  17.8972

     occupation numbers 
     1.0000   1.0000   1.0000   1.0000   1.0000   1.0000   1.0000   1.0000
    -0.0000  -0.0000  -0.0000  -0.0000

          k = 0.4930-0.0003-0.0000     band energies (ev):

    -9.7733  -8.6938  -4.0291  -2.6709  -2.4791  -0.9265   3.1034   4.3726
     8.9996  10.9190  15.6009  17.9180

     occupation numbers 
     1.0000   1.0000   1.0000   1.0000   1.0000   1.0000   1.0000   1.0000
    -0.0000  -0.0000  -0.0000  -0.0000

     the Fermi energy is     6.5622 ev

!    total energy              =     -76.77375527 Ry
     Harris-Foulkes estimate   =     -76.77375366 Ry
     estimated scf accuracy    <       0.00014518 Ry

     total all-electron energy =      -311.840107 Ry

     The total energy is the sum of the following terms:

     one-electron contribution =     -14.40712367 Ry
     hartree contribution      =      15.56600451 Ry
     xc contribution           =     -16.65887321 Ry
     ewald contribution        =     -34.44331441 Ry
     DFT-D3 Dispersion         =      -0.02601268 Ry
     scf correction            =       0.06328964 Ry
     one-center paw contrib.   =     -26.86772546 Ry
      -> PAW hartree energy AE =      45.91216654 Ry
      -> PAW hartree energy PS =     -45.84937876 Ry
      -> PAW xc energy AE      =     -43.73879879 Ry
      -> PAW xc energy PS      =      16.80828554 Ry
      -> total E_H with PAW    =      15.62879229 Ry
[...]
    11.1306  12.7864  13.2669  13.5698

     occupation numbers 
     1.0000   1.0000   1.0000   1.0000   1.0000   1.0000   1.0000   1.0000
    -0.0000  -0.0000  -0.0000  -0.0000

          k = 0.4967-0.2868-0.0003     band energies (ev):

   -10.3451  -8.4872  -7.3813  -4.6749  -0.6415   0.1413   3.2583   3.4314
     7.4353   9.2455  12.8656  14.2423

     occupation numbers 
     1.0000   1.0000   1.0000   1.0000   1.0000   1.0000   1.0000   1.0000
    -0.0000  -0.0000  -0.0000  -0.0000

          k =-0.4967-0.2868 0.0007     band energies (ev):

   -10.3451  -8.4872  -7.3814  -4.6750  -0.6414   0.1413   3.2521   3.4382
     7.4348   9.2450  12.8656  14.2422

     occupation numbers 
     1.0000   1.0000   1.0000   1.0000   1.0000   1.0000   1.0000   1.0000
    -0.0000  -0.0000  -0.0000  -0.0000

          k =-0.2484 0.4302-0.0001     band energies (ev):

   -10.4728  -9.4031  -4.7661  -3.3745  -3.1247  -1.6124   2.6865   3.4897
     8.4368  10.2153  14.7084  17.1229

     occupation numbers 
     1.0000   1.0000   1.0000   1.0000   1.0000   1.0000   1.0000   1.0000
    -0.0000  -0.0000  -0.0000  -0.0000

          k = 0.4967 0.0000-0.0005     band energies (ev):

   -10.4728  -9.4031  -4.7662  -3.3746  -3.1246  -1.6123   2.6865   3.4900
     8.4378  10.2136  14.7084  17.1120

     occupation numbers 
     1.0000   1.0000   1.0000   1.0000   1.0000   1.0000   1.0000   1.0000
    -0.0000  -0.0000  -0.0000  -0.0000

     the Fermi energy is     5.7146 ev

!    total energy              =     -76.77756301 Ry
     Harris-Foulkes estimate   =     -76.77756304 Ry
     estimated scf accuracy    <       0.00000008 Ry

     total all-electron energy =      -311.843915 Ry

     The total energy is the sum of the following terms:

     one-electron contribution =     -19.70155928 Ry
     hartree contribution      =      17.87282630 Ry
     xc contribution           =     -16.71401711 Ry
     ewald contribution        =     -31.33950447 Ry
     DFT-D3 Dispersion         =      -0.02336759 Ry
     scf correction            =       0.00050675 Ry
     one-center paw contrib.   =     -26.87244761 Ry
      -> PAW hartree energy AE =      46.64401709 Ry
      -> PAW hartree energy PS =     -46.58023019 Ry
      -> PAW xc energy AE      =     -43.91520958 Ry
      -> PAW xc energy PS      =      16.97897507 Ry
      -> total E_H with PAW    =      17.93661320 Ry
      -> total E_XC with PAW   =     -43.65025162 Ry
     smearing contrib. (-TS)   =       0.00000000 Ry

     iteration # 11     ecut=    52.00 Ry     beta= 0.70
     Davidson diagonalization with overlap
     ethr =  4.92E-10,  avg # of iterations =  3.2

     total cpu time spent up to now is      497.5 secs

          k = 0.0000 0.0000 0.0000     band energies (ev):

   -13.6627 -13.4694  -2.1200  -0.6452   2.6646   2.6648   3.0000   3.0005
     9.2649  13.8876  13.8879  13.9676

     occupation numbers 
     1.0000   1.0000   1.0000   1.0000   1.0000   1.0000   1.0000   1.0000
    -0.0000  -0.0000  -0.0000  -0.0000

          k = 0.0000 0.2868-0.0002     band energies (ev):

   -12.3533 -12.1579  -1.6790  -0.8046  -0.4064   0.6988   0.9134   1.3458
    11.1307  12.7841  13.2690  13.5692

     occupation numbers 
     1.0000   1.0000   1.0000   1.0000   1.0000   1.0000   1.0000   1.0000
    -0.0000  -0.0000  -0.0000  -0.0000

          k =-0.0000-0.5736 0.0005     band energies (ev):

   -10.3447  -8.4882  -7.3823  -4.6747  -0.6424   0.1415   3.2585   3.4308
     7.4346   9.2458  12.8650  14.2426

     occupation numbers 
     1.0000   1.0000   1.0000   1.0000   1.0000   1.0000   1.0000   1.0000
    -0.0000  -0.0000  -0.0000  -0.0000

          k = 0.2484 0.4302-0.0006     band energies (ev):

   -10.4724  -9.4040  -4.7672  -3.3742  -3.1255  -1.6121   2.6862   3.4899
     8.4370  10.2139  14.7085  17.1125

     occupation numbers 
     1.0000   1.0000   1.0000   1.0000   1.0000   1.0000   1.0000   1.0000
    -0.0000  -0.0000  -0.0000  -0.0000

          k =-0.2484 0.1434 0.0001     band energies (ev):

   -12.3533 -12.1579  -1.6789  -0.8047  -0.4064   0.6986   0.9134   1.3459
    11.1307  12.7842  13.2689  13.5690

     occupation numbers 
     1.0000   1.0000   1.0000   1.0000   1.0000   1.0000   1.0000   1.0000
    -0.0000  -0.0000  -0.0000  -0.0000

          k = 0.2484 0.1434-0.0004     band energies (ev):

   -12.3533 -12.1579  -1.6790  -0.8047  -0.4064   0.6987   0.9135   1.3460
    11.1307  12.7856  13.2672  13.5690

     occupation numbers 
     1.0000   1.0000   1.0000   1.0000   1.0000   1.0000   1.0000   1.0000
    -0.0000  -0.0000  -0.0000  -0.0000

          k = 0.4967-0.2868-0.0003     band energies (ev):

   -10.3447  -8.4882  -7.3823  -4.6747  -0.6426   0.1416   3.2582   3.4312
     7.4347   9.2456  12.8648  14.2425

     occupation numbers 
     1.0000   1.0000   1.0000   1.0000   1.0000   1.0000   1.0000   1.0000
    -0.0000  -0.0000  -0.0000  -0.0000

          k =-0.4967-0.2868 0.0007     band energies (ev):

   -10.3447  -8.4881  -7.3823  -4.6747  -0.6425   0.1416   3.2520   3.4380
     7.4342   9.2450  12.8648  14.2423

     occupation numbers 
     1.0000   1.0000   1.0000   1.0000   1.0000   1.0000   1.0000   1.0000
    -0.0000  -0.0000  -0.0000  -0.0000

          k =-0.2484 0.4302-0.0001     band energies (ev):

   -10.4724  -9.4040  -4.7671  -3.3742  -3.1256  -1.6122   2.6864   3.4897
     8.4361  10.2153  14.7085  17.1228

     occupation numbers 
     1.0000   1.0000   1.0000   1.0000   1.0000   1.0000   1.0000   1.0000
    -0.0000  -0.0000  -0.0000  -0.0000

          k = 0.4967 0.0000-0.0005     band energies (ev):

   -10.4724  -9.4040  -4.7672  -3.3743  -3.1256  -1.6121   2.6863   3.4899
     8.4371  10.2137  14.7085  17.1119

     occupation numbers 
     1.0000   1.0000   1.0000   1.0000   1.0000   1.0000   1.0000   1.0000
    -0.0000  -0.0000  -0.0000  -0.0000

     the Fermi energy is     5.7143 ev

!    total energy              =     -76.77756302 Ry
     Harris-Foulkes estimate   =     -76.77756303 Ry
     estimated scf accuracy    <       0.00000003 Ry

     total all-electron energy =      -311.843915 Ry

     The total energy is the sum of the following terms:

     one-electron contribution =     -19.70157137 Ry
     hartree contribution      =      17.87332704 Ry
     xc contribution           =     -16.71411812 Ry
     ewald contribution        =     -31.33950447 Ry
     DFT-D3 Dispersion         =      -0.02336759 Ry
     scf correction            =       0.00013372 Ry
     one-center paw contrib.   =     -26.87246223 Ry
      -> PAW hartree energy AE =      46.64607618 Ry
      -> PAW hartree energy PS =     -46.58228623 Ry
      -> PAW xc energy AE      =     -43.91559612 Ry
      -> PAW xc energy PS      =      16.97934395 Ry
      -> total E_H with PAW    =      17.93711698 Ry
      -> total E_XC with PAW   =     -43.65037029 Ry
     smearing contrib. (-TS)   =       0.00000000 Ry

     iteration # 12     ecut=    52.00 Ry     beta= 0.70
     Davidson diagonalization with overlap
     ethr =  1.63E-10,  avg # of iterations =  2.8

     total cpu time spent up to now is      498.0 secs

     End of self-consistent calculation

          k = 0.0000 0.0000 0.0000 (  1691 PWs)   bands (ev):

   -13.6620 -13.4693  -2.1196  -0.6451   2.6657   2.6659   2.9999   3.0004
     9.2649  13.8886  13.8889  13.9677

     occupation numbers 
     1.0000   1.0000   1.0000   1.0000   1.0000   1.0000   1.0000   1.0000
    -0.0000  -0.0000  -0.0000  -0.0000

          k = 0.0000 0.2868-0.0002 (  1666 PWs)   bands (ev):

   -12.3532 -12.1571  -1.6780  -0.8047  -0.4060   0.6998   0.9135   1.3457
    11.1307  12.7848  13.2689  13.5701

     occupation numbers 
     1.0000   1.0000   1.0000   1.0000   1.0000   1.0000   1.0000   1.0000
    -0.0000  -0.0000  -0.0000  -0.0000

          k =-0.0000-0.5736 0.0005 (  1648 PWs)   bands (ev):

   -10.3447  -8.4873  -7.3814  -4.6749  -0.6414   0.1414   3.2587   3.4312
     7.4353   9.2454  12.8659  14.2424

     occupation numbers 
     1.0000   1.0000   1.0000   1.0000   1.0000   1.0000   1.0000   1.0000
    -0.0000  -0.0000  -0.0000  -0.0000

          k = 0.2484 0.4302-0.0006 (  1650 PWs)   bands (ev):

   -10.4725  -9.4031  -4.7662  -3.3744  -3.1246  -1.6123   2.6866   3.4901
     8.4377  10.2136  14.7085  17.1126

     occupation numbers 
     1.0000   1.0000   1.0000   1.0000   1.0000   1.0000   1.0000   1.0000
    -0.0000  -0.0000  -0.0000  -0.0000

          k =-0.2484 0.1434 0.0001 (  1666 PWs)   bands (ev):

   -12.3532 -12.1571  -1.6779  -0.8048  -0.4060   0.6997   0.9136   1.3459
    11.1307  12.7849  13.2688  13.5699

     occupation numbers 
     1.0000   1.0000   1.0000   1.0000   1.0000   1.0000   1.0000   1.0000
    -0.0000  -0.0000  -0.0000  -0.0000

          k = 0.2484 0.1434-0.0004 (  1666 PWs)   bands (ev):

   -12.3532 -12.1571  -1.6780  -0.8048  -0.4061   0.6998   0.9136   1.3459
    11.1307  12.7863  13.2671  13.5699

     occupation numbers 
     1.0000   1.0000   1.0000   1.0000   1.0000   1.0000   1.0000   1.0000
    -0.0000  -0.0000  -0.0000  -0.0000

          k = 0.4967-0.2868-0.0003 (  1648 PWs)   bands (ev):

   -10.3447  -8.4872  -7.3813  -4.6749  -0.6415   0.1415   3.2585   3.4316
     7.4353   9.2452  12.8656  14.2422

     occupation numbers 
     1.0000   1.0000   1.0000   1.0000   1.0000   1.0000   1.0000   1.0000
    -0.0000  -0.0000  -0.0000  -0.0000

          k =-0.4967-0.2868 0.0007 (  1648 PWs)   bands (ev):

   -10.3448  -8.4872  -7.3814  -4.6749  -0.6415   0.1415   3.2523   3.4384
     7.4348   9.2446  12.8657  14.2421

     occupation numbers 
     1.0000   1.0000   1.0000   1.0000   1.0000   1.0000   1.0000   1.0000
    -0.0000  -0.0000  -0.0000  -0.0000

          k =-0.2484 0.4302-0.0001 (  1652 PWs)   bands (ev):

   -10.4724  -9.4031  -4.7661  -3.3744  -3.1247  -1.6123   2.6867   3.4900
     8.4367  10.2150  14.7085  17.1229

     occupation numbers 
     1.0000   1.0000   1.0000   1.0000   1.0000   1.0000   1.0000   1.0000
    -0.0000  -0.0000  -0.0000  -0.0000

          k = 0.4967 0.0000-0.0005 (  1653 PWs)   bands (ev):

   -10.4724  -9.4031  -4.7662  -3.3745  -3.1246  -1.6122   2.6866   3.4902
     8.4378  10.2133  14.7085  17.1120

     occupation numbers 
     1.0000   1.0000   1.0000   1.0000   1.0000   1.0000   1.0000   1.0000
    -0.0000  -0.0000  -0.0000  -0.0000

     the Fermi energy is     5.7146 ev

!    total energy              =     -76.77756303 Ry
     Harris-Foulkes estimate   =     -76.77756303 Ry
     estimated scf accuracy    <          1.5E-09 Ry

     total all-electron energy =      -311.843915 Ry

     The total energy is the sum of the following terms:

     one-electron contribution =     -19.70129083 Ry
     hartree contribution      =      17.87313626 Ry
     xc contribution           =     -16.71407088 Ry
     ewald contribution        =     -31.33950447 Ry
     DFT-D3 Dispersion         =      -0.02336759 Ry
     one-center paw contrib.   =     -26.87246552 Ry
      -> PAW hartree energy AE =      46.64506639 Ry
      -> PAW hartree energy PS =     -46.58127685 Ry
      -> PAW xc energy AE      =     -43.91540021 Ry
      -> PAW xc energy PS      =      16.97914515 Ry
      -> total E_H with PAW    =      17.93692580 Ry
      -> total E_XC with PAW   =     -43.65032594 Ry
     smearing contrib. (-TS)   =       0.00000000 Ry

     convergence has been achieved in  12 iterations

     Forces acting on atoms (cartesian axes, Ry/au):

     atom    1 type  2   force =    -0.00002215    0.00003594    0.00089005
     atom    2 type  3   force =     0.00004543   -0.00000910   -0.00021663
     atom    3 type  1   force =     0.00001583   -0.00000244   -0.00018972
     atom    4 type  1   force =    -0.00003911   -0.00002440   -0.00048371
     The non-local contrib.  to forces
     atom    1 type  2   force =     0.00003941    0.00007742    0.00003938
     atom    2 type  3   force =     0.00000295   -0.00003072   -0.00080621
     atom    3 type  1   force =     0.00002279    0.00001809    0.00013615
     atom    4 type  1   force =    -0.00003419   -0.00002604   -0.00046017
     The ionic contribution  to forces
     atom    1 type  2   force =    -0.00010795    0.00005848    0.12934912
     atom    2 type  3   force =    -0.00026257   -0.00036980    0.22251669
     atom    3 type  1   force =     0.00022295    0.00020722   -0.17753027
     atom    4 type  1   force =     0.00014757    0.00010411   -0.17433554
     The local contribution  to forces
     atom    1 type  2   force =     0.00008569   -0.00009219   -0.12914966
     atom    2 type  3   force =     0.00027096    0.00038123   -0.22171100
     atom    3 type  1   force =    -0.00023469   -0.00022696    0.17742389
     atom    4 type  1   force =    -0.00014340   -0.00009345    0.17452873
     The core correction contribution to forces
     atom    1 type  2   force =    -0.00006984   -0.00002050    0.00087232
     atom    2 type  3   force =     0.00000382    0.00000143    0.00000024
     atom    3 type  1   force =    -0.00002482   -0.00001140   -0.00005186
     atom    4 type  1   force =    -0.00003975   -0.00002393   -0.00003155
     The Hubbard contrib.    to forces
     atom    1 type  2   force =     0.00000000    0.00000000    0.00000000
     atom    2 type  3   force =     0.00000000    0.00000000    0.00000000
     atom    3 type  1   force =     0.00000000    0.00000000    0.00000000
     atom    4 type  1   force =     0.00000000    0.00000000    0.00000000
     The SCF correction term to forces
     atom    1 type  2   force =    -0.00000001   -0.00000010   -0.00000188
     atom    2 type  3   force =    -0.00000020   -0.00000401   -0.00000827
     atom    3 type  1   force =    -0.00000088   -0.00000216   -0.00000078
     atom    4 type  1   force =     0.00000107    0.00000270    0.00000011

     DFT-D3 dispersion contribution to forces:
     atom    1 type  2   force =     0.00000029    0.00000018   -0.00002437
     atom    2 type  3   force =     0.00000019    0.00000013   -0.00001322
     atom    3 type  1   force =     0.00000020    0.00000012    0.00002801
     atom    4 type  1   force =    -0.00000068   -0.00000044    0.00000958

     Total force =     0.001056     Total SCF correction =     0.000010

     DFT-D3 dispersion Force =     0.000041


     Computing stress (Cartesian axis) and pressure

          total   stress  (Ry/bohr**3)                   (kbar)     P=        0.59
   0.00000115  -0.00000027   0.00000031            0.17       -0.04        0.05
  -0.00000027   0.00000101   0.00000022           -0.04        0.15        0.03
   0.00000031   0.00000022   0.00000994            0.05        0.03        1.46

     kinetic stress (kbar)  10665.98     -0.02     -1.50
                               -0.02  10665.99     -1.24
                               -1.50     -1.24  12055.77

     local   stress (kbar) -24993.31     -0.02    -51.58
                               -0.02 -24992.96    -42.64
                              -51.58    -42.64  21012.25

     nonloc. stress (kbar)   3903.97      0.01      0.37
                                0.01   3903.95      0.30
                                0.37      0.30   3590.25

     hartree stress (kbar)   8396.13     -0.02     16.96
                               -0.02   8396.10     14.02
                               16.96     14.02  -6768.02

     exc-cor stress (kbar)  -1386.00      0.00      0.12
                                0.00  -1386.00      0.10
                                0.12      0.10  -1493.21

     corecor stress (kbar)  -1331.75     -0.05     -0.03
                               -0.05  -1331.70     -0.03
                               -0.03     -0.03  -1294.10

     ewald   stress (kbar)   4751.98      0.05     35.70
                                0.05   4751.61     29.52
                               35.70     29.52 -27080.45

     hubbard stress (kbar)      0.00      0.00      0.00
                                0.00      0.00      0.00
                                0.00      0.00      0.00

     london  stress (kbar)      0.00      0.00      0.00
                                0.00      0.00      0.00
                                0.00      0.00      0.00

     DFT-D3  stress (kbar)     -6.83      0.00      0.01
                                0.00     -6.83      0.01
                                0.01      0.01    -21.02

     XDM     stress (kbar)      0.00      0.00      0.00
                                0.00      0.00      0.00
                                0.00      0.00      0.00

     dft-nl  stress (kbar)      0.00      0.00      0.00
                                0.00      0.00      0.00
                                0.00      0.00      0.00

     TS-vdW  stress (kbar)      0.00      0.00      0.00
                                0.00      0.00      0.00
                                0.00      0.00      0.00



     Writing output data file ./Gr_BN.save/

     init_run     :      3.96s CPU      3.97s WALL (       2 calls)
     electrons    :    198.15s CPU    198.65s WALL (      37 calls)
     update_pot   :     54.96s CPU     55.00s WALL (      35 calls)
     forces       :     98.78s CPU     98.86s WALL (      37 calls)
     stress       :    142.30s CPU    142.36s WALL (      37 calls)

     Called by init_run:
     wfcinit      :      0.28s CPU      0.28s WALL (       2 calls)
     wfcinit:atom :      0.00s CPU      0.00s WALL (      20 calls)
     wfcinit:wfcr :      0.24s CPU      0.24s WALL (      20 calls)
     potinit      :      1.01s CPU      1.01s WALL (       2 calls)
     hinit0       :      2.64s CPU      2.64s WALL (       2 calls)

     Called by electrons:
     c_bands      :     81.51s CPU     81.87s WALL (     283 calls)
     sum_band     :     16.12s CPU     16.18s WALL (     283 calls)
     v_of_rho     :      4.46s CPU      4.46s WALL (     307 calls)
     v_h          :      0.16s CPU      0.16s WALL (     307 calls)
     v_xc         :      5.34s CPU      5.34s WALL (     381 calls)
     newd         :      4.94s CPU      4.95s WALL (     307 calls)
     PAW_pot      :     38.39s CPU     38.42s WALL (     342 calls)
     mix_rho      :      0.28s CPU      0.28s WALL (     283 calls)

     Called by c_bands:
     init_us_2    :      2.07s CPU      2.08s WALL (    6770 calls)
     cegterg      :     79.24s CPU     79.58s WALL (    2830 calls)

     Called by sum_band:
     sum_band:bec :      0.02s CPU      0.02s WALL (    3180 calls)
     addusdens    :      4.46s CPU      4.47s WALL (     283 calls)

     Called by *egterg:
     h_psi        :     58.20s CPU     58.45s WALL (   11751 calls)
     s_psi        :      4.62s CPU      4.64s WALL (   11751 calls)
     g_psi        :      0.26s CPU      0.26s WALL (    8901 calls)
     cdiaghg      :      2.18s CPU      2.19s WALL (   11251 calls)
     cegterg:over :      6.34s CPU      6.37s WALL (    8901 calls)
     cegterg:upda :      3.73s CPU      3.74s WALL (    8901 calls)
     cegterg:last :      2.24s CPU      2.25s WALL (    3081 calls)

     Called by h_psi:
     h_psi:calbec :      5.60s CPU      5.63s WALL (   11751 calls)
     vloc_psi     :     47.78s CPU     47.98s WALL (   11751 calls)
     add_vuspsi   :      4.64s CPU      4.67s WALL (   11751 calls)

     General routines
     calbec       :      8.99s CPU      9.03s WALL (   16781 calls)
     fft          :      1.86s CPU      1.86s WALL (    4350 calls)
     ffts         :      0.12s CPU      0.12s WALL (     283 calls)
     fftw         :     50.74s CPU     50.96s WALL (  229126 calls)


     PAW routines
     PAW_pot      :     38.39s CPU     38.42s WALL (     342 calls)

     PWSCF        :   8m23.93s CPU   8m24.63s WALL


   This run was terminated on:  19:27:39   4Jun2020            

=------------------------------------------------------------------------------=
   JOB DONE.
=------------------------------------------------------------------------------=
