
     Program PWSCF v.6.5 starts on  4Jun2020 at 19:32:29 

     This program is part of the open-source Quantum ESPRESSO suite
     for quantum simulation of materials; please cite
         "P. Giannozzi et al., J. Phys.:Condens. Matter 21 395502 (2009);
         "P. Giannozzi et al., J. Phys.:Condens. Matter 29 465901 (2017);
          URL http://www.quantum-espresso.org", 
     in publications or presentations arising from this work. More details at
     http://www.quantum-espresso.org/quote

     Serial version

     Program PWSCF v.6.5 starts on  4Jun2020 at 19:32:29 

     This program is part of the open-source Quantum ESPRESSO suite
     for quantum simulation of materials; please cite
         "P. Giannozzi et al., J. Phys.:Condens. Matter 21 395502 (2009);
         "P. Giannozzi et al., J. Phys.:Condens. Matter 29 465901 (2017);
          URL http://www.quantum-espresso.org", 
     in publications or presentations arising from this work. More details at
     http://www.quantum-espresso.org/quote

     Serial version
     Reading input from scf.inp

     Program PWSCF v.6.5 starts on  4Jun2020 at 19:32:29 

     This program is part of the open-source Quantum ESPRESSO suite
     for quantum simulation of materials; please cite
         "P. Giannozzi et al., J. Phys.:Condens. Matter 21 395502 (2009);
         "P. Giannozzi et al., J. Phys.:Condens. Matter 29 465901 (2017);
          URL http://www.quantum-espresso.org", 
     in publications or presentations arising from this work. More details at
     http://www.quantum-espresso.org/quote

     Serial version

     Program PWSCF v.6.5 starts on  4Jun2020 at 19:32:29 

     This program is part of the open-source Quantum ESPRESSO suite
     for quantum simulation of materials; please cite
         "P. Giannozzi et al., J. Phys.:Condens. Matter 21 395502 (2009);
         "P. Giannozzi et al., J. Phys.:Condens. Matter 29 465901 (2017);
          URL http://www.quantum-espresso.org", 
     in publications or presentations arising from this work. More details at
     http://www.quantum-espresso.org/quote

     Serial version
     Reading input from scf.inp

     Current dimensions of program PWSCF are:
     Max number of different atomic species (ntypx) = 10
     Max number of k-points (npk) =  40000
     Max angular momentum in pseudopotentials (lmaxx) =  3

     Current dimensions of program PWSCF are:
     Max number of different atomic species (ntypx) = 10
     Max number of k-points (npk) =  40000
     Max angular momentum in pseudopotentials (lmaxx) =  3
     Reading input from scf.inp

     Current dimensions of program PWSCF are:
     Max number of different atomic species (ntypx) = 10
     Max number of k-points (npk) =  40000
     Max angular momentum in pseudopotentials (lmaxx) =  3
     Reading input from scf.inp

     Current dimensions of program PWSCF are:
     Max number of different atomic species (ntypx) = 10
     Max number of k-points (npk) =  40000
     Max angular momentum in pseudopotentials (lmaxx) =  3

     Program PWSCF v.6.5 starts on  4Jun2020 at 19:32:29 

     This program is part of the open-source Quantum ESPRESSO suite
     for quantum simulation of materials; please cite
         "P. Giannozzi et al., J. Phys.:Condens. Matter 21 395502 (2009);
         "P. Giannozzi et al., J. Phys.:Condens. Matter 29 465901 (2017);
          URL http://www.quantum-espresso.org", 
     in publications or presentations arising from this work. More details at
     http://www.quantum-espresso.org/quote

     Serial version
     Reading input from scf.inp

     Current dimensions of program PWSCF are:
     Max number of different atomic species (ntypx) = 10
     Max number of k-points (npk) =  40000
     Max angular momentum in pseudopotentials (lmaxx) =  3

     Program PWSCF v.6.5 starts on  4Jun2020 at 19:32:29 

     This program is part of the open-source Quantum ESPRESSO suite
     for quantum simulation of materials; please cite
         "P. Giannozzi et al., J. Phys.:Condens. Matter 21 395502 (2009);
         "P. Giannozzi et al., J. Phys.:Condens. Matter 29 465901 (2017);
          URL http://www.quantum-espresso.org", 
     in publications or presentations arising from this work. More details at
     http://www.quantum-espresso.org/quote

     Serial version
     Reading input from scf.inp

     Current dimensions of program PWSCF are:
     Max number of different atomic species (ntypx) = 10
     Max number of k-points (npk) =  40000
     Max angular momentum in pseudopotentials (lmaxx) =  3

     Program PWSCF v.6.5 starts on  4Jun2020 at 19:32:29 

     This program is part of the open-source Quantum ESPRESSO suite
     for quantum simulation of materials; please cite
         "P. Giannozzi et al., J. Phys.:Condens. Matter 21 395502 (2009);
         "P. Giannozzi et al., J. Phys.:Condens. Matter 29 465901 (2017);
          URL http://www.quantum-espresso.org", 
     in publications or presentations arising from this work. More details at
     http://www.quantum-espresso.org/quote

     Serial version
     Reading input from scf.inp

     Current dimensions of program PWSCF are:
     Max number of different atomic species (ntypx) = 10
     Max number of k-points (npk) =  40000
     Max angular momentum in pseudopotentials (lmaxx) =  3

     Program PWSCF v.6.5 starts on  4Jun2020 at 19:32:29 

     This program is part of the open-source Quantum ESPRESSO suite
     for quantum simulation of materials; please cite
         "P. Giannozzi et al., J. Phys.:Condens. Matter 21 395502 (2009);
         "P. Giannozzi et al., J. Phys.:Condens. Matter 29 465901 (2017);
          URL http://www.quantum-espresso.org", 
     in publications or presentations arising from this work. More details at
     http://www.quantum-espresso.org/quote

     Serial version

     Program PWSCF v.6.5 starts on  4Jun2020 at 19:32:29 

     This program is part of the open-source Quantum ESPRESSO suite
     for quantum simulation of materials; please cite
         "P. Giannozzi et al., J. Phys.:Condens. Matter 21 395502 (2009);
         "P. Giannozzi et al., J. Phys.:Condens. Matter 29 465901 (2017);
          URL http://www.quantum-espresso.org", 
     in publications or presentations arising from this work. More details at
     http://www.quantum-espresso.org/quote

     Serial version
     Reading input from scf.inp
     Reading input from scf.inp

     Current dimensions of program PWSCF are:
     Max number of different atomic species (ntypx) = 10
     Max number of k-points (npk) =  40000
     Max angular momentum in pseudopotentials (lmaxx) =  3

     Current dimensions of program PWSCF are:
     Max number of different atomic species (ntypx) = 10
     Max number of k-points (npk) =  40000
     Max angular momentum in pseudopotentials (lmaxx) =  3

     Program PWSCF v.6.5 starts on  4Jun2020 at 19:32:29 

     This program is part of the open-source Quantum ESPRESSO suite
     for quantum simulation of materials; please cite
         "P. Giannozzi et al., J. Phys.:Condens. Matter 21 395502 (2009);
         "P. Giannozzi et al., J. Phys.:Condens. Matter 29 465901 (2017);
          URL http://www.quantum-espresso.org", 
     in publications or presentations arising from this work. More details at
     http://www.quantum-espresso.org/quote

     Serial version
     Reading input from scf.inp

     Current dimensions of program PWSCF are:
     Max number of different atomic species (ntypx) = 10
     Max number of k-points (npk) =  40000
     Max angular momentum in pseudopotentials (lmaxx) =  3
     Message from routine read_upf::
     Pseudo file C.pbe-n-kjpaw_psl.0.1.UPF has been fixed on the fly.
To avoid this message in the future, permanently fix 
 your pseudo files following these instructions: 
https://gitlab.com/QEF/q-e/blob/master/upftools/how_to_fix_upf.md
     Message from routine read_upf::
     Pseudo file C.pbe-n-kjpaw_psl.0.1.UPF has been fixed on the fly.
To avoid this message in the future, permanently fix 
 your pseudo files following these instructions: 
https://gitlab.com/QEF/q-e/blob/master/upftools/how_to_fix_upf.md
     Message from routine read_upf::
     Pseudo file C.pbe-n-kjpaw_psl.0.1.UPF has been fixed on the fly.
To avoid this message in the future, permanently fix 
 your pseudo files following these instructions: 
https://gitlab.com/QEF/q-e/blob/master/upftools/how_to_fix_upf.md
     Message from routine read_upf::
     Pseudo file C.pbe-n-kjpaw_psl.0.1.UPF has been fixed on the fly.
To avoid this message in the future, permanently fix 
 your pseudo files following these instructions: 
https://gitlab.com/QEF/q-e/blob/master/upftools/how_to_fix_upf.md
     Message from routine read_upf::
     Pseudo file C.pbe-n-kjpaw_psl.0.1.UPF has been fixed on the fly.
To avoid this message in the future, permanently fix 
 your pseudo files following these instructions: 
https://gitlab.com/QEF/q-e/blob/master/upftools/how_to_fix_upf.md
     Message from routine read_upf::
     Pseudo file C.pbe-n-kjpaw_psl.0.1.UPF has been fixed on the fly.
To avoid this message in the future, permanently fix 
 your pseudo files following these instructions: 
https://gitlab.com/QEF/q-e/blob/master/upftools/how_to_fix_upf.md
     Message from routine read_upf::
     Pseudo file B.pbe-n-kjpaw_psl.0.1.UPF has been fixed on the fly.
To avoid this message in the future, permanently fix 
 your pseudo files following these instructions: 
https://gitlab.com/QEF/q-e/blob/master/upftools/how_to_fix_upf.md

 %%%%%%%%%%%%%%%%%%%%%%%%%%%%%%%%%%%%%%%%%%%%%%%%%%%%%%%%%%%%%%%%%%%%%%%%%%%%%%
     Error in routine readpp (1):
     file ./B.pbe-n-kjpaw_psl.0.1.UPF not readable
 %%%%%%%%%%%%%%%%%%%%%%%%%%%%%%%%%%%%%%%%%%%%%%%%%%%%%%%%%%%%%%%%%%%%%%%%%%%%%%

     stopping ...

 %%%%%%%%%%%%%%%%%%%%%%%%%%%%%%%%%%%%%%%%%%%%%%%%%%%%%%%%%%%%%%%%%%%%%%%%%%%%%%
     Error in routine upf_module:read_upf (2):
     error while opening file ./B.pbe-n-kjpaw_psl.0.1.UPF_
 %%%%%%%%%%%%%%%%%%%%%%%%%%%%%%%%%%%%%%%%%%%%%%%%%%%%%%%%%%%%%%%%%%%%%%%%%%%%%%

     stopping ...
     Message from routine read_upf::
     Pseudo file B.pbe-n-kjpaw_psl.0.1.UPF has been fixed on the fly.
To avoid this message in the future, permanently fix 
 your pseudo files following these instructions: 
https://gitlab.com/QEF/q-e/blob/master/upftools/how_to_fix_upf.md


 %%%%%%%%%%%%%%%%%%%%%%%%%%%%%%%%%%%%%%%%%%%%%%%%%%%%%%%%%%%%%%%%%%%%%%%%%%%%%%
     Error in routine upf_module:read_upf (2):
     error while opening file ./B.pbe-n-kjpaw_psl.0.1.UPF_
 %%%%%%%%%%%%%%%%%%%%%%%%%%%%%%%%%%%%%%%%%%%%%%%%%%%%%%%%%%%%%%%%%%%%%%%%%%%%%%

     stopping ...
 %%%%%%%%%%%%%%%%%%%%%%%%%%%%%%%%%%%%%%%%%%%%%%%%%%%%%%%%%%%%%%%%%%%%%%%%%%%%%%
     Error in routine readpp (1):
     file ./B.pbe-n-kjpaw_psl.0.1.UPF not readable
 %%%%%%%%%%%%%%%%%%%%%%%%%%%%%%%%%%%%%%%%%%%%%%%%%%%%%%%%%%%%%%%%%%%%%%%%%%%%%%

     stopping ...
     Message from routine read_upf::
     Pseudo file C.pbe-n-kjpaw_psl.0.1.UPF has been fixed on the fly.
To avoid this message in the future, permanently fix 
 your pseudo files following these instructions: 
https://gitlab.com/QEF/q-e/blob/master/upftools/how_to_fix_upf.md
     Message from routine read_upf::
     Pseudo file C.pbe-n-kjpaw_psl.0.1.UPF has been fixed on the fly.
To avoid this message in the future, permanently fix 
 your pseudo files following these instructions: 
https://gitlab.com/QEF/q-e/blob/master/upftools/how_to_fix_upf.md
     Message from routine read_upf::
     Pseudo file B.pbe-n-kjpaw_psl.0.1.UPF has been fixed on the fly.
To avoid this message in the future, permanently fix 
 your pseudo files following these instructions: 
https://gitlab.com/QEF/q-e/blob/master/upftools/how_to_fix_upf.md

 %%%%%%%%%%%%%%%%%%%%%%%%%%%%%%%%%%%%%%%%%%%%%%%%%%%%%%%%%%%%%%%%%%%%%%%%%%%%%%
     Error in routine readpp (1):
     file ./B.pbe-n-kjpaw_psl.0.1.UPF not readable
 %%%%%%%%%%%%%%%%%%%%%%%%%%%%%%%%%%%%%%%%%%%%%%%%%%%%%%%%%%%%%%%%%%%%%%%%%%%%%%

     stopping ...
     Message from routine read_upf::
     Pseudo file C.pbe-n-kjpaw_psl.0.1.UPF has been fixed on the fly.
To avoid this message in the future, permanently fix 
 your pseudo files following these instructions: 
https://gitlab.com/QEF/q-e/blob/master/upftools/how_to_fix_upf.md
     Message from routine read_upf::
     Pseudo file C.pbe-n-kjpaw_psl.0.1.UPF has been fixed on the fly.
To avoid this message in the future, permanently fix 
 your pseudo files following these instructions: 
https://gitlab.com/QEF/q-e/blob/master/upftools/how_to_fix_upf.md
     Message from routine read_upf::
     Pseudo file B.pbe-n-kjpaw_psl.0.1.UPF has been fixed on the fly.
To avoid this message in the future, permanently fix 
 your pseudo files following these instructions: 
https://gitlab.com/QEF/q-e/blob/master/upftools/how_to_fix_upf.md
     Message from routine read_upf::
     Pseudo file B.pbe-n-kjpaw_psl.0.1.UPF has been fixed on the fly.
To avoid this message in the future, permanently fix 
 your pseudo files following these instructions: 
https://gitlab.com/QEF/q-e/blob/master/upftools/how_to_fix_upf.md
     Message from routine read_upf::
     Pseudo file B.pbe-n-kjpaw_psl.0.1.UPF has been fixed on the fly.
To avoid this message in the future, permanently fix 
 your pseudo files following these instructions: 
https://gitlab.com/QEF/q-e/blob/master/upftools/how_to_fix_upf.md
     Message from routine read_upf::
     Pseudo file N.pbe-n-kjpaw_psl.0.1.UPF has been fixed on the fly.
To avoid this message in the future, permanently fix 
 your pseudo files following these instructions: 
https://gitlab.com/QEF/q-e/blob/master/upftools/how_to_fix_upf.md

 %%%%%%%%%%%%%%%%%%%%%%%%%%%%%%%%%%%%%%%%%%%%%%%%%%%%%%%%%%%%%%%%%%%%%%%%%%%%%%
     Error in routine readpp (1):
     file ./N.pbe-n-kjpaw_psl.0.1.UPF not readable
 %%%%%%%%%%%%%%%%%%%%%%%%%%%%%%%%%%%%%%%%%%%%%%%%%%%%%%%%%%%%%%%%%%%%%%%%%%%%%%

     stopping ...
     Message from routine read_upf::
     Pseudo file N.pbe-n-kjpaw_psl.0.1.UPF has been fixed on the fly.
To avoid this message in the future, permanently fix 
 your pseudo files following these instructions: 
https://gitlab.com/QEF/q-e/blob/master/upftools/how_to_fix_upf.md
               file C.pbe-n-kjpaw_psl.0.1.UPF: wavefunction(s)  2P renormalized
               file B.pbe-n-kjpaw_psl.0.1.UPF: wavefunction(s)  2P renormalized
               file N.pbe-n-kjpaw_psl.0.1.UPF: wavefunction(s)  2P renormalized
     Message from routine read_upf::
     Pseudo file N.pbe-n-kjpaw_psl.0.1.UPF has been fixed on the fly.
To avoid this message in the future, permanently fix 
 your pseudo files following these instructions: 
https://gitlab.com/QEF/q-e/blob/master/upftools/how_to_fix_upf.md
               file C.pbe-n-kjpaw_psl.0.1.UPF: wavefunction(s)  2P renormalized
               file B.pbe-n-kjpaw_psl.0.1.UPF: wavefunction(s)  2P renormalized
               file N.pbe-n-kjpaw_psl.0.1.UPF: wavefunction(s)  2P renormalized

     --------------------------------------------
     Parameters for DFT-D3 Dispersion Correction:
     --------------------------------------------
       Reference C6 values for interpolation: 

         atom   Coordination number   C6
         B          0.000           214.36
         B          0.971           150.74
         B          1.944           106.23
         B          2.913            62.89
         B          4.586            56.06
         C          0.000            98.23
         C          0.987            86.49
         C          1.998            58.72
         C          2.999            51.56
         C          3.984            36.41
         N          0.000            50.54
         N          0.994            44.25
         N          2.014            39.35
         N          2.990            31.16

       Values used:

         atom   Coordination number  R0_AB[au]  C6      C8
         B          3.382            3.039     62.86   2504.67
         N          3.158            2.478     31.21    688.49
         C          3.288            2.750     48.79   1411.00
         C          3.288            2.750     48.78   1410.94

         Molecular C6 ( Ry / a.u.^6 ) =       752.00


     G-vector sticks info
     --------------------
     sticks:   dense  smooth     PW     G-vecs:    dense   smooth      PW
     Sum         313     313    109                13363    13363    2773


     Title: 
     Unstrained graphene optimization. 2 atoms fragment. SCF                    


     bravais-lattice index     =            0
     lattice parameter (alat)  =       4.6638  a.u.
     unit-cell volume          =     263.2433 (a.u.)^3
     number of atoms/cell      =            4
     number of atomic types    =            3
     number of electrons       =        16.00
     number of Kohn-Sham states=           20
     kinetic-energy cutoff     =      52.0000  Ry
     charge density cutoff     =     208.0000  Ry
     convergence threshold     =      1.0E-06
     mixing beta               =       0.7000
     number of iterations used =            8  plain     mixing
     Exchange-correlation= SLA PW PBX PBC
                           (   1   4   3   4   0   0   0)

     celldm(1)=   4.663844  celldm(2)=   0.000000  celldm(3)=   0.000000
     celldm(4)=   0.000000  celldm(5)=   0.000000  celldm(6)=   0.000000

     crystal axes: (cart. coord. in units of alat)
               a(1) = (   1.007020  -0.000003   0.000449 )  
               a(2) = (  -0.503513   0.872109   0.000267 )  
               a(3) = (   0.001128   0.001431   2.954726 )  

     reciprocal axes: (cart. coord. in units 2 pi/alat)
               b(1) = (  0.993030  0.573327 -0.000657 )  
               b(2) = (  0.000004  1.146648 -0.000555 )  
               b(3) = ( -0.000151 -0.000191  0.338441 )  


     PseudoPot. # 1 for C  read from file:
     ./C.pbe-n-kjpaw_psl.0.1.UPF
     MD5 check sum: 430fe95172b1e11ef3f8ed03bac87931
     Pseudo is Projector augmented-wave + core cor, Zval =  4.0
     Generated using "atomic" code by A. Dal Corso v.5.0.99 svn rev. 10869
     Shape of augmentation charge: BESSEL
     Using radial grid of 1073 points,  4 beta functions with: 
                l(1) =   0
                l(2) =   0
                l(3) =   1
                l(4) =   1
     Q(r) pseudized with 0 coefficients 


     PseudoPot. # 2 for B  read from file:
     ./B.pbe-n-kjpaw_psl.0.1.UPF
     MD5 check sum: b4345a612e0782cca08559f453f3313f
     Pseudo is Projector augmented-wave + core cor, Zval =  3.0
     Generated using "atomic" code by A. Dal Corso v.5.0.99 svn rev. 10869
     Shape of augmentation charge: BESSEL
     Using radial grid of 1059 points,  4 beta functions with: 
                l(1) =   0
                l(2) =   0
                l(3) =   1
                l(4) =   1
     Q(r) pseudized with 0 coefficients 


     PseudoPot. # 3 for N  read from file:
     ./N.pbe-n-kjpaw_psl.0.1.UPF
     MD5 check sum: f73187c8b701007e77325f868c9291d7
     Pseudo is Projector augmented-wave + core cor, Zval =  5.0
     Generated using "atomic" code by A. Dal Corso v.5.0.99 svn rev. 10869
     Shape of augmentation charge: PSQ
     Using radial grid of 1085 points,  4 beta functions with: 
                l(1) =   0
                l(2) =   0
                l(3) =   1
                l(4) =   1
     Q(r) pseudized with 0 coefficients 


     atomic species   valence    mass     pseudopotential
        C              4.00    12.01100     C ( 1.00)
        B              3.00    10.81700     B ( 1.00)
        N              5.00    14.00700     N ( 1.00)

     No symmetry found


                                    s                        frac. trans.

      isym =  1     identity                                     

 cryst.   s( 1) = (     1          0          0      )
                  (     0          1          0      )
                  (     0          0          1      )

 cart.    s( 1) = (  1.0000000  0.0000000 -0.0000000 )
                  (  0.0000000  1.0000000 -0.0000000 )
                  (  0.0000000 -0.0000000  1.0000000 )


   Cartesian axes

     site n.     atom                  positions (alat units)
         1           B   tau(   1) = (   0.0055800   0.5846645   1.2634664  )
         2           N   tau(   2) = (   0.5091014   0.2939623   1.2636912  )
         3           C   tau(   3) = (   0.0080931   0.0051005   2.7536644  )
         4           C   tau(   4) = (   0.0080988   0.5865134   2.7540945  )

   Crystallographic axes

     site n.     atom                  positions (cryst. coord.)
         1           B   tau(   1) = (  0.3399155  0.6697031  0.4274965  )
         2           N   tau(   2) = (  0.6732599  0.3363716  0.4275521  )
         3           C   tau(   3) = (  0.0091529  0.0043198  0.9319507  )
         4           C   tau(   4) = (  0.3424981  0.6709956  0.9319855  )

     number of k points=    10  Methfessel-Paxton smearing, width (Ry)=  0.0200
                       cart. coord. in units 2pi/alat
        k(    1) = (   0.0000000   0.0000000   0.0000000), wk =   0.1250000
        k(    2) = (   0.0000009   0.2866621  -0.0001388), wk =   0.2500000
        k(    3) = (  -0.0000018  -0.5733241   0.0002776), wk =   0.1250000
        k(    4) = (   0.2482576   0.1433318  -0.0001642), wk =   0.2500000
        k(    5) = (   0.2482585   0.4299938  -0.0003029), wk =   0.2500000
        k(    6) = (   0.2482558  -0.4299923   0.0001134), wk =   0.2500000
        k(    7) = (   0.2482567  -0.1433303  -0.0000254), wk =   0.2500000
        k(    8) = (  -0.4965152  -0.2866636   0.0003283), wk =   0.1250000
        k(    9) = (  -0.4965143  -0.0000015   0.0001895), wk =   0.2500000
        k(   10) = (  -0.4965170  -0.8599877   0.0006059), wk =   0.1250000

                       cryst. coord.
        k(    1) = (   0.0000000   0.0000000   0.0000000), wk =   0.1250000
        k(    2) = (   0.0000000   0.2500000  -0.0000000), wk =   0.2500000
        k(    3) = (  -0.0000000  -0.5000000   0.0000000), wk =   0.1250000
        k(    4) = (   0.2500000  -0.0000000  -0.0000000), wk =   0.2500000
        k(    5) = (   0.2500000   0.2500000  -0.0000000), wk =   0.2500000
        k(    6) = (   0.2500000  -0.5000000   0.0000000), wk =   0.2500000
        k(    7) = (   0.2500000  -0.2500000   0.0000000), wk =   0.2500000
        k(    8) = (  -0.5000000   0.0000000   0.0000000), wk =   0.1250000
        k(    9) = (  -0.5000000   0.2500000   0.0000000), wk =   0.2500000
        k(   10) = (  -0.5000000  -0.5000000   0.0000000), wk =   0.1250000

     Dense  grid:    13363 G-vectors     FFT dimensions: (  24,  24,  64)

     Dynamical RAM for                 wfc:       0.51 MB

     Dynamical RAM for     wfc (w. buffer):       5.60 MB

     Dynamical RAM for           str. fact:       0.61 MB

     Dynamical RAM for           local pot:       0.00 MB

     Dynamical RAM for          nlocal pot:       0.81 MB

     Dynamical RAM for                qrad:       0.74 MB

     Dynamical RAM for          rho,v,vnew:       1.46 MB

     Dynamical RAM for               rhoin:       0.49 MB

     Dynamical RAM for            rho*nmix:       3.26 MB

     Dynamical RAM for           G-vectors:       0.87 MB

     Dynamical RAM for          h,s,v(r/c):       0.29 MB

     Dynamical RAM for          <psi|beta>:       0.01 MB

     Dynamical RAM for                 psi:       2.03 MB

     Dynamical RAM for                hpsi:       2.03 MB

     Dynamical RAM for                spsi:       2.03 MB

     Dynamical RAM for      wfcinit/wfcrot:       1.03 MB

     Dynamical RAM for           addusdens:       9.18 MB

     Dynamical RAM for          addusforce:      10.91 MB

     Dynamical RAM for         addusstress:      10.20 MB

     Estimated static dynamical RAM per process >      16.05 MB

     Estimated max dynamical RAM per process >      26.96 MB

     --------------------------------------------
     Parameters for DFT-D3 Dispersion Correction:
     --------------------------------------------
       Reference C6 values for interpolation: 

         atom   Coordination number   C6
         B          0.000           214.36
         B          0.971           150.74
         B          1.944           106.23
         B          2.913            62.89
         B          4.586            56.06
         C          0.000            98.23
         C          0.987            86.49
         C          1.998            58.72
         C          2.999            51.56
         C          3.984            36.41
         N          0.000            50.54
         N          0.994            44.25
         N          2.014            39.35
         N          2.990            31.16

       Values used:

         atom   Coordination number  R0_AB[au]  C6      C8
         B          3.382            3.039     62.86   2504.67
         N          3.158            2.478     31.21    688.49
         C          3.288            2.750     48.79   1411.00
         C          3.288            2.750     48.78   1410.94

         Molecular C6 ( Ry / a.u.^6 ) =       752.00


     G-vector sticks info
     --------------------
     sticks:   dense  smooth     PW     G-vecs:    dense   smooth      PW
     Sum         313     313    109                13363    13363    2773


     Title: 
     Unstrained graphene optimization. 2 atoms fragment. SCF                    


     bravais-lattice index     =            0
     lattice parameter (alat)  =       4.6638  a.u.
     unit-cell volume          =     263.2433 (a.u.)^3
     number of atoms/cell      =            4
     number of atomic types    =            3
     number of electrons       =        16.00
     number of Kohn-Sham states=           20
     kinetic-energy cutoff     =      52.0000  Ry
     charge density cutoff     =     208.0000  Ry
     convergence threshold     =      1.0E-06
     mixing beta               =       0.7000
     number of iterations used =            8  plain     mixing
     Exchange-correlation= SLA PW PBX PBC
                           (   1   4   3   4   0   0   0)

     celldm(1)=   4.663844  celldm(2)=   0.000000  celldm(3)=   0.000000
     celldm(4)=   0.000000  celldm(5)=   0.000000  celldm(6)=   0.000000

     crystal axes: (cart. coord. in units of alat)
               a(1) = (   1.007020  -0.000003   0.000449 )  
               a(2) = (  -0.503513   0.872109   0.000267 )  
               a(3) = (   0.001128   0.001431   2.954726 )  

     reciprocal axes: (cart. coord. in units 2 pi/alat)
               b(1) = (  0.993030  0.573327 -0.000657 )  
               b(2) = (  0.000004  1.146648 -0.000555 )  
               b(3) = ( -0.000151 -0.000191  0.338441 )  


     PseudoPot. # 1 for C  read from file:
     ./C.pbe-n-kjpaw_psl.0.1.UPF
     MD5 check sum: 430fe95172b1e11ef3f8ed03bac87931
     Pseudo is Projector augmented-wave + core cor, Zval =  4.0
     Generated using "atomic" code by A. Dal Corso v.5.0.99 svn rev. 10869
     Shape of augmentation charge: BESSEL
     Using radial grid of 1073 points,  4 beta functions with: 
                l(1) =   0
                l(2) =   0
                l(3) =   1
                l(4) =   1
     Q(r) pseudized with 0 coefficients 


     PseudoPot. # 2 for B  read from file:
     ./B.pbe-n-kjpaw_psl.0.1.UPF
     MD5 check sum: b4345a612e0782cca08559f453f3313f
     Pseudo is Projector augmented-wave + core cor, Zval =  3.0
     Generated using "atomic" code by A. Dal Corso v.5.0.99 svn rev. 10869
     Shape of augmentation charge: BESSEL
     Using radial grid of 1059 points,  4 beta functions with: 
                l(1) =   0
                l(2) =   0
                l(3) =   1
                l(4) =   1
     Q(r) pseudized with 0 coefficients 


     PseudoPot. # 3 for N  read from file:
     ./N.pbe-n-kjpaw_psl.0.1.UPF
     MD5 check sum: f73187c8b701007e77325f868c9291d7
     Pseudo is Projector augmented-wave + core cor, Zval =  5.0
     Generated using "atomic" code by A. Dal Corso v.5.0.99 svn rev. 10869
     Shape of augmentation charge: PSQ
     Using radial grid of 1085 points,  4 beta functions with: 
                l(1) =   0
                l(2) =   0
                l(3) =   1
                l(4) =   1
     Q(r) pseudized with 0 coefficients 


     atomic species   valence    mass     pseudopotential
        C              4.00    12.01100     C ( 1.00)
        B              3.00    10.81700     B ( 1.00)
        N              5.00    14.00700     N ( 1.00)

     No symmetry found


                                    s                        frac. trans.

      isym =  1     identity                                     

 cryst.   s( 1) = (     1          0          0      )
                  (     0          1          0      )
                  (     0          0          1      )

 cart.    s( 1) = (  1.0000000  0.0000000 -0.0000000 )
                  (  0.0000000  1.0000000 -0.0000000 )
                  (  0.0000000 -0.0000000  1.0000000 )


   Cartesian axes

     site n.     atom                  positions (alat units)
         1           B   tau(   1) = (   0.0055800   0.5846645   1.2634664  )
         2           N   tau(   2) = (   0.5091014   0.2939623   1.2636912  )
         3           C   tau(   3) = (   0.0080931   0.0051005   2.7536644  )
         4           C   tau(   4) = (   0.0080988   0.5865134   2.7540945  )

   Crystallographic axes

     site n.     atom                  positions (cryst. coord.)
         1           B   tau(   1) = (  0.3399155  0.6697031  0.4274965  )
         2           N   tau(   2) = (  0.6732599  0.3363716  0.4275521  )
         3           C   tau(   3) = (  0.0091529  0.0043198  0.9319507  )
         4           C   tau(   4) = (  0.3424981  0.6709956  0.9319855  )

     number of k points=    10  Methfessel-Paxton smearing, width (Ry)=  0.0200
                       cart. coord. in units 2pi/alat
        k(    1) = (   0.0000000   0.0000000   0.0000000), wk =   0.1250000
        k(    2) = (   0.0000009   0.2866621  -0.0001388), wk =   0.2500000
        k(    3) = (  -0.0000018  -0.5733241   0.0002776), wk =   0.1250000
        k(    4) = (   0.2482576   0.1433318  -0.0001642), wk =   0.2500000
        k(    5) = (   0.2482585   0.4299938  -0.0003029), wk =   0.2500000
        k(    6) = (   0.2482558  -0.4299923   0.0001134), wk =   0.2500000
        k(    7) = (   0.2482567  -0.1433303  -0.0000254), wk =   0.2500000
        k(    8) = (  -0.4965152  -0.2866636   0.0003283), wk =   0.1250000
        k(    9) = (  -0.4965143  -0.0000015   0.0001895), wk =   0.2500000
        k(   10) = (  -0.4965170  -0.8599877   0.0006059), wk =   0.1250000

                       cryst. coord.
        k(    1) = (   0.0000000   0.0000000   0.0000000), wk =   0.1250000
        k(    2) = (   0.0000000   0.2500000  -0.0000000), wk =   0.2500000
        k(    3) = (  -0.0000000  -0.5000000   0.0000000), wk =   0.1250000
        k(    4) = (   0.2500000  -0.0000000  -0.0000000), wk =   0.2500000
        k(    5) = (   0.2500000   0.2500000  -0.0000000), wk =   0.2500000
        k(    6) = (   0.2500000  -0.5000000   0.0000000), wk =   0.2500000
        k(    7) = (   0.2500000  -0.2500000   0.0000000), wk =   0.2500000
        k(    8) = (  -0.5000000   0.0000000   0.0000000), wk =   0.1250000
        k(    9) = (  -0.5000000   0.2500000   0.0000000), wk =   0.2500000
        k(   10) = (  -0.5000000  -0.5000000   0.0000000), wk =   0.1250000

     Dense  grid:    13363 G-vectors     FFT dimensions: (  24,  24,  64)

     Dynamical RAM for                 wfc:       0.51 MB

     Dynamical RAM for     wfc (w. buffer):       5.60 MB

     Dynamical RAM for           str. fact:       0.61 MB

     Dynamical RAM for           local pot:       0.00 MB

     Dynamical RAM for          nlocal pot:       0.81 MB

     Dynamical RAM for                qrad:       0.74 MB

     Dynamical RAM for          rho,v,vnew:       1.46 MB

     Dynamical RAM for               rhoin:       0.49 MB

     Dynamical RAM for            rho*nmix:       3.26 MB

     Dynamical RAM for           G-vectors:       0.87 MB

     Dynamical RAM for          h,s,v(r/c):       0.29 MB

     Dynamical RAM for          <psi|beta>:       0.01 MB

     Dynamical RAM for                 psi:       2.03 MB

     Dynamical RAM for                hpsi:       2.03 MB

     Dynamical RAM for                spsi:       2.03 MB

     Dynamical RAM for      wfcinit/wfcrot:       1.03 MB

     Dynamical RAM for           addusdens:       9.18 MB

     Dynamical RAM for          addusforce:      10.91 MB

     Dynamical RAM for         addusstress:      10.20 MB

     Estimated static dynamical RAM per process >      16.05 MB

     Estimated max dynamical RAM per process >      26.96 MB

     Check: negative core charge=   -0.000045

     Initial potential from superposition of free atoms

     Check: negative core charge=   -0.000045

     Initial potential from superposition of free atoms

     starting charge   15.99963, renormalised to   16.00000

     starting charge   15.99963, renormalised to   16.00000
     Starting wfcs are   16 randomized atomic wfcs +    4 random wfcs
     Starting wfcs are   16 randomized atomic wfcs +    4 random wfcs

     total cpu time spent up to now is        2.2 secs

     total cpu time spent up to now is        2.1 secs

     Self-consistent Calculation

     iteration #  1     ecut=    52.00 Ry     beta= 0.70
     Davidson diagonalization with overlap

     Self-consistent Calculation

     iteration #  1     ecut=    52.00 Ry     beta= 0.70
     Davidson diagonalization with overlap
     ethr =  1.00E-02,  avg # of iterations =  5.5
     ethr =  1.00E-02,  avg # of iterations =  5.5

     total cpu time spent up to now is        5.0 secs

          k = 0.0000 0.0000 0.0000     band energies (ev):

   -16.9677 -15.6231  -3.5920  -2.5393  -1.2875  -1.2862  -0.0753   0.0120
     9.1314  11.6456  11.6536  12.4783  13.1584  13.1608  14.9049  14.9838
    15.6154  16.8999  21.5722  26.7920

     occupation numbers 
     1.0000   1.0000   1.0000   1.0000   1.0000   1.0000   1.0000   1.0000
    -0.0000  -0.0000  -0.0000  -0.0000  -0.0000  -0.0000  -0.0000  -0.0000
    -0.0000  -0.0000  -0.0000  -0.0000

          k = 0.0000 0.2867-0.0001     band energies (ev):

   -15.8939 -14.2257  -4.6122  -4.1307  -2.7298  -2.0919  -1.9218  -0.9895
    10.8204  10.9579  11.1997  11.5989  12.9840  16.3998  16.5775  17.4133
    17.5135  18.2692  23.2272  24.1628

     occupation numbers 
     1.0000   1.0000   1.0000   1.0000   1.0000   1.0000   1.0000   1.0000
    -0.0000  -0.0000  -0.0000  -0.0000  -0.0000  -0.0000  -0.0000  -0.0000
    -0.0000  -0.0000  -0.0000  -0.0000

          k =-0.0000-0.5733 0.0003     band energies (ev):

   -14.1829 -10.6867  -9.5555  -8.0164  -3.8239  -2.9700   0.3183   2.0827
     6.1686   7.6896  11.0185  11.9180  16.0527  17.2693  18.2139  20.7542
    21.0578  22.3488  22.9029  24.5572

     occupation numbers 
     1.0000   1.0000   1.0000   1.0000   1.0000   1.0000   1.0000   1.0000
     0.0123  -0.0000  -0.0000  -0.0000  -0.0000  -0.0000  -0.0000  -0.0000
    -0.0000  -0.0000  -0.0000  -0.0000

          k = 0.2483 0.1433-0.0002     band energies (ev):

   -15.8939 -14.2256  -4.6131  -4.1298  -2.7288  -2.0918  -1.9233  -0.9892
    10.8203  10.9592  11.1982  11.6000  12.9841  16.3966  16.5816  17.4156
    17.5115  18.2705  23.2307  24.2791

     occupation numbers 
     1.0000   1.0000   1.0000   1.0000   1.0000   1.0000   1.0000   1.0000
    -0.0000  -0.0000  -0.0000  -0.0000  -0.0000  -0.0000  -0.0000  -0.0000
    -0.0000  -0.0000  -0.0000  -0.0000

          k = 0.2483 0.4300-0.0003     band energies (ev):

   -14.2690 -11.5492  -7.1144  -6.9222  -5.4633  -5.2625   0.1713   1.8259
     7.1362   8.3728  14.1512  15.6198  15.8049  16.1027  16.7611  17.4400
    18.2371  21.5536  23.7697  24.0782

     occupation numbers 
     1.0000   1.0000   1.0000   1.0000   1.0000   1.0000   1.0000   1.0000
    -0.0000  -0.0000  -0.0000  -0.0000  -0.0000  -0.0000  -0.0000  -0.0000
    -0.0000  -0.0000  -0.0000  -0.0000

          k = 0.2483-0.4300 0.0001     band energies (ev):

   -14.2704 -11.5502  -7.1151  -6.9225  -5.4610  -5.2628   0.1715   1.8260
     7.1780   8.3732  14.1511  15.6196  15.8081  16.1047  16.9040  17.4405
    18.3779  21.5529  23.7719  24.2555

     occupation numbers 
     1.0000   1.0000   1.0000   1.0000   1.0000   1.0000   1.0000   1.0000

     total cpu time spent up to now is        5.0 secs

          k = 0.0000 0.0000 0.0000     band energies (ev):

    -0.0000  -0.0000  -0.0000  -0.0000  -0.0000  -0.0000  -0.0000  -0.0000
    -0.0000  -0.0000  -0.0000  -0.0000

          k = 0.2483-0.1433-0.0000     band energies (ev):

   -16.9677 -15.6231  -3.5920  -2.5393  -1.2875  -1.2862  -0.0753   0.0120
     9.1314  11.6456  11.6536  12.4783  13.1584  13.1608  14.9049  14.9838
    15.6154  16.8999  21.5722  26.7920

   -15.8939 -14.2260  -4.6125  -4.1337  -2.7296  -2.0918  -1.9174  -0.9882
    10.8198  10.9579  11.1997  11.5973  12.9841  16.4048  16.5780  17.4143
    17.5118  18.2660  23.2281  24.1612

     occupation numbers 
     1.0000   1.0000   1.0000   1.0000   1.0000   1.0000   1.0000   1.0000
    -0.0000  -0.0000  -0.0000  -0.0000  -0.0000  -0.0000  -0.0000  -0.0000
    -0.0000  -0.0000  -0.0000  -0.0000

          k =-0.4965-0.2867 0.0003     band energies (ev):

     occupation numbers 
     1.0000   1.0000   1.0000   1.0000   1.0000   1.0000   1.0000   1.0000
    -0.0000  -0.0000  -0.0000  -0.0000  -0.0000  -0.0000  -0.0000  -0.0000
    -0.0000  -0.0000  -0.0000  -0.0000

          k = 0.0000 0.2867-0.0001     band energies (ev):

   -15.8939 -14.2257  -4.6122  -4.1307  -2.7298  -2.0919  -1.9218  -0.9895
    10.8204  10.9579  11.1997  11.5989  12.9840  16.3998  16.5775  17.4133
    17.5135  18.2692  23.2272  24.1628

     occupation numbers 
     1.0000   1.0000   1.0000   1.0000   1.0000   1.0000   1.0000   1.0000
   -14.1831 -10.6863  -9.5555  -8.0166  -3.8227  -2.9616   0.3182   2.0834
     6.1683   7.6887  11.0186  11.9193  16.0528  17.2687  18.2082  20.7731
    21.0569  22.3446  22.9059  24.5644

     occupation numbers 
     1.0000   1.0000   1.0000   1.0000   1.0000   1.0000   1.0000   1.0000
     0.0126  -0.0000  -0.0000  -0.0000  -0.0000  -0.0000  -0.0000  -0.0000
    -0.0000  -0.0000  -0.0000  -0.0000

          k =-0.4965-0.0000 0.0002     band energies (ev):

    -0.0000  -0.0000  -0.0000  -0.0000  -0.0000  -0.0000  -0.0000  -0.0000
    -0.0000  -0.0000  -0.0000  -0.0000

          k =-0.0000-0.5733 0.0003     band energies (ev):

   -14.1829 -10.6867  -9.5555  -8.0164  -3.8239  -2.9700   0.3183   2.0827
     6.1686   7.6896  11.0185  11.9180  16.0527  17.2693  18.2139  20.7542
    21.0578  22.3488  22.9029  24.5572

     occupation numbers 
     1.0000   1.0000   1.0000   1.0000   1.0000   1.0000   1.0000   1.0000
   -14.2705 -11.5499  -7.1152  -6.9230  -5.4613  -5.2622   0.1715   1.8261
     7.1717   8.3730  14.1511  15.6201  15.8071  16.1032  16.8144  17.4415
    18.2333  21.5541  23.7759  24.2212

     occupation numbers 
     1.0000   1.0000   1.0000   1.0000   1.0000   1.0000   1.0000   1.0000
    -0.0000  -0.0000  -0.0000  -0.0000  -0.0000  -0.0000  -0.0000  -0.0000
    -0.0000  -0.0000  -0.0000  -0.0000

     0.0123  -0.0000  -0.0000  -0.0000  -0.0000  -0.0000  -0.0000  -0.0000
    -0.0000  -0.0000  -0.0000  -0.0000

          k = 0.2483 0.1433-0.0002     band energies (ev):

          k =-0.4965-0.8600 0.0006     band energies (ev):

   -14.1828 -10.6874  -9.5576  -8.0169  -3.8236  -2.9837   0.3184   2.0829
   -15.8939 -14.2256  -4.6131  -4.1298  -2.7288  -2.0918  -1.9233  -0.9892
    10.8203  10.9592  11.1982  11.6000  12.9841  16.3966  16.5816  17.4156
     6.3782   7.6898  11.0176  11.9186  16.0533  17.2680  18.2143  20.7498
    21.0558  22.3564  22.9039  24.5470

     occupation numbers 
    17.5115  18.2705  23.2307  24.2791

     occupation numbers 
     1.0000   1.0000   1.0000   1.0000   1.0000   1.0000   1.0000   1.0000
     1.0000   1.0000   1.0000   1.0000   1.0000   1.0000   1.0000   1.0000
    -0.0249  -0.0000  -0.0000  -0.0000  -0.0000  -0.0000  -0.0000  -0.0000
    -0.0000  -0.0000  -0.0000  -0.0000
    -0.0000  -0.0000  -0.0000  -0.0000  -0.0000  -0.0000  -0.0000  -0.0000
    -0.0000  -0.0000  -0.0000  -0.0000

          k = 0.2483 0.4300-0.0003     band energies (ev):


     the Fermi energy is     5.9534 ev

   -14.2690 -11.5492  -7.1144  -6.9222  -5.4633  -5.2625   0.1713   1.8259
     7.1362   8.3728  14.1512  15.6198  15.8049  16.1027  16.7611  17.4400
!    total energy              =     -76.61382007 Ry
     Harris-Foulkes estimate   =     -76.99354835 Ry
     estimated scf accuracy    <       0.58258806 Ry

     total all-electron energy =      -311.680172 Ry
    18.2371  21.5536  23.7697  24.0782

     occupation numbers 
     1.0000   1.0000   1.0000   1.0000   1.0000   1.0000   1.0000   1.0000
    -0.0000  -0.0000  -0.0000  -0.0000  -0.0000  -0.0000  -0.0000  -0.0000
    -0.0000  -0.0000  -0.0000  -0.0000

          k = 0.2483-0.4300 0.0001     band energies (ev):


     The total energy is the sum of the following terms:

     one-electron contribution =     -21.61174956 Ry
     hartree contribution      =      18.64480767 Ry
     xc contribution           =     -16.85995259 Ry
     ewald contribution        =     -31.21196426 Ry
     DFT-D3 Dispersion         =      -0.02325364 Ry
     scf correction            =       1.39477931 Ry
     one-center paw contrib.   =     -26.94670068 Ry
   -14.2704 -11.5502  -7.1151  -6.9225  -5.4610  -5.2628   0.1715   1.8260
     7.1780   8.3732  14.1511  15.6196  15.8081  16.1047  16.9040  17.4405
    18.3779  21.5529  23.7719  24.2555

     occupation numbers 
      -> PAW hartree energy AE =      41.37676421 Ry
      -> PAW hartree energy PS =     -41.30916702 Ry
      -> PAW xc energy AE      =     -42.71030334 Ry
      -> PAW xc energy PS      =      15.69600547 Ry
      -> total E_H with PAW    =      18.71240486 Ry
      -> total E_XC with PAW   =     -43.87425046 Ry
     1.0000   1.0000   1.0000   1.0000   1.0000   1.0000   1.0000   1.0000
    -0.0000  -0.0000  -0.0000  -0.0000  -0.0000  -0.0000  -0.0000  -0.0000
    -0.0000  -0.0000  -0.0000  -0.0000

          k = 0.2483-0.1433-0.0000     band energies (ev):

   -15.8939 -14.2260  -4.6125  -4.1337  -2.7296  -2.0918  -1.9174  -0.9882
     smearing contrib. (-TS)   =       0.00021367 Ry

    10.8198  10.9579  11.1997  11.5973  12.9841  16.4048  16.5780  17.4143
    17.5118  18.2660  23.2281  24.1612

     occupation numbers 
     iteration #  2     ecut=    52.00 Ry     beta= 0.70
     1.0000   1.0000   1.0000   1.0000   1.0000   1.0000   1.0000   1.0000
    -0.0000  -0.0000  -0.0000  -0.0000  -0.0000  -0.0000  -0.0000  -0.0000
    -0.0000  -0.0000  -0.0000  -0.0000

          k =-0.4965-0.2867 0.0003     band energies (ev):

   -14.1831 -10.6863  -9.5555  -8.0166  -3.8227  -2.9616   0.3182   2.0834
     6.1683   7.6887  11.0186  11.9193  16.0528  17.2687  18.2082  20.7731
    21.0569  22.3446  22.9059  24.5644

     occupation numbers 
     1.0000   1.0000   1.0000   1.0000   1.0000   1.0000   1.0000   1.0000
     0.0126  -0.0000  -0.0000  -0.0000  -0.0000  -0.0000  -0.0000  -0.0000
    -0.0000  -0.0000  -0.0000  -0.0000

          k =-0.4965-0.0000 0.0002     band energies (ev):

   -14.2705 -11.5499  -7.1152  -6.9230  -5.4613  -5.2622   0.1715   1.8261
     7.1717   8.3730  14.1511  15.6201  15.8071  16.1032  16.8144  17.4415
    18.2333  21.5541  23.7759  24.2212

     occupation numbers 
     1.0000   1.0000   1.0000   1.0000   1.0000   1.0000   1.0000   1.0000
    -0.0000  -0.0000  -0.0000  -0.0000  -0.0000  -0.0000  -0.0000  -0.0000
    -0.0000  -0.0000  -0.0000  -0.0000

          k =-0.4965-0.8600 0.0006     band energies (ev):

   -14.1828 -10.6874  -9.5576  -8.0169  -3.8236  -2.9837   0.3184   2.0829
     6.3782   7.6898  11.0176  11.9186  16.0533  17.2680  18.2143  20.7498
    21.0558  22.3564  22.9039  24.5470

     occupation numbers 
     1.0000   1.0000   1.0000   1.0000   1.0000   1.0000   1.0000   1.0000
    -0.0249  -0.0000  -0.0000  -0.0000  -0.0000  -0.0000  -0.0000  -0.0000
    -0.0000  -0.0000  -0.0000  -0.0000

     the Fermi energy is     5.9534 ev

!    total energy              =     -76.61382007 Ry
     Harris-Foulkes estimate   =     -76.99354835 Ry
     estimated scf accuracy    <       0.58258806 Ry

     total all-electron energy =      -311.680172 Ry

     The total energy is the sum of the following terms:

     one-electron contribution =     -21.61174956 Ry
     hartree contribution      =      18.64480767 Ry
     xc contribution           =     -16.85995259 Ry
     ewald contribution        =     -31.21196426 Ry
     DFT-D3 Dispersion         =      -0.02325364 Ry
     Davidson diagonalization with overlap
     scf correction            =       1.39477931 Ry
     one-center paw contrib.   =     -26.94670068 Ry
      -> PAW hartree energy AE =      41.37676421 Ry
      -> PAW hartree energy PS =     -41.30916702 Ry
      -> PAW xc energy AE      =     -42.71030334 Ry
      -> PAW xc energy PS      =      15.69600547 Ry
      -> total E_H with PAW    =      18.71240486 Ry
      -> total E_XC with PAW   =     -43.87425046 Ry
     smearing contrib. (-TS)   =       0.00021367 Ry

     iteration #  2     ecut=    52.00 Ry     beta= 0.70
     Davidson diagonalization with overlap
     ethr =  3.64E-03,  avg # of iterations =  2.3
     ethr =  3.64E-03,  avg # of iterations =  2.3

     total cpu time spent up to now is        5.7 secs

          k = 0.0000 0.0000 0.0000     band energies (ev):

   -13.7455 -12.4618  -2.1052  -0.0794   2.5693   2.6124   4.3511   4.3517
     9.2303  13.8163  13.8177  14.3871  16.4405  16.4412  16.8037  17.5775
    17.8581  19.1331  22.6292  27.6905

     occupation numbers 
     1.0000   1.0000   1.0000   1.0000   1.0000   1.0000   1.0000   1.0000
    -0.0000  -0.0000  -0.0000  -0.0000  -0.0000  -0.0000  -0.0000  -0.0000
    -0.0000  -0.0000  -0.0000  -0.0000

          k = 0.0000 0.2867-0.0001     band energies (ev):

   -12.2989 -11.2220  -1.7813  -0.3837   0.2584   0.6079   1.5470   2.5283
    11.1114  12.7051  13.4666  14.0556  15.7673  16.8650  18.7821  20.2713
    20.6591  21.2508  24.4163  24.7892

     occupation numbers 
     1.0000   1.0000   1.0000   1.0000   1.0000   1.0000   1.0000   1.0000
    -0.0000  -0.0000  -0.0000  -0.0000  -0.0000  -0.0000  -0.0000  -0.0000
    -0.0000  -0.0000  -0.0000  -0.0000

          k =-0.0000-0.5733 0.0003     band energies (ev):

    -9.0255  -8.6018  -7.4876  -3.9305  -0.6451   1.2528   3.2636   4.5217
     7.3667   9.2786  12.7375  14.5588  16.6059  17.3256  19.0084  21.1044
    23.8472  25.0913  26.6405  27.4398

     occupation numbers 
     1.0000   1.0000   1.0000   1.0000   1.0000   1.0000   1.0000   1.0000
    -0.0029  -0.0000  -0.0000  -0.0000  -0.0000  -0.0000  -0.0000  -0.0000
    -0.0000  -0.0000  -0.0000  -0.0000

          k = 0.2483 0.1433-0.0002     band energies (ev):

   -12.2991 -11.2220  -1.7834  -0.3846   0.2580   0.6076   1.5472   2.5285
    11.1108  12.7051  13.4648  14.0526  15.7678  16.8648  18.7800  20.2659
    20.6571  21.2511  24.4230  24.8741

     occupation numbers 
     1.0000   1.0000   1.0000   1.0000   1.0000   1.0000   1.0000   1.0000
    -0.0000  -0.0000  -0.0000  -0.0000  -0.0000  -0.0000  -0.0000  -0.0000
    -0.0000  -0.0000  -0.0000  -0.0000

          k = 0.2483 0.4300-0.0003     band energies (ev):

    -9.5239  -9.1868  -4.8729  -3.2299  -2.4590  -0.7284   2.7952   4.3977
     8.4579  10.4419  14.7463  17.0464  17.5792  17.8192  18.5841  19.2910
    20.1239  23.7605  24.4456  25.3815

     occupation numbers 
     1.0000   1.0000   1.0000   1.0000   1.0000   1.0000   1.0000   1.0000
    -0.0000  -0.0000  -0.0000  -0.0000  -0.0000  -0.0000  -0.0000  -0.0000
    -0.0000  -0.0000  -0.0000  -0.0000

          k = 0.2483-0.4300 0.0001     band energies (ev):

    -9.5234  -9.1868  -4.8751  -3.2309  -2.4570  -0.7285   2.7807   4.3978
     8.4123  10.4421  14.7418  17.1036  17.5677  17.7950  18.6018  19.2694
    20.1163  23.7896  24.5249  24.6261

     occupation numbers 
     1.0000   1.0000   1.0000   1.0000   1.0000   1.0000   1.0000   1.0000
    -0.0000  -0.0000  -0.0000  -0.0000  -0.0000  -0.0000  -0.0000  -0.0000
    -0.0000  -0.0000  -0.0000  -0.0000

          k = 0.2483-0.1433-0.0000     band energies (ev):

   -12.2989 -11.2220  -1.7827  -0.3834   0.2583   0.6095   1.5470   2.5284
    11.1111  12.7055  13.4682  14.0561  15.7674  16.8652  18.7822  20.2710
    20.6581  21.2513  24.4169  24.7873

     occupation numbers 
     1.0000   1.0000   1.0000   1.0000   1.0000   1.0000   1.0000   1.0000
    -0.0000  -0.0000  -0.0000  -0.0000  -0.0000  -0.0000  -0.0000  -0.0000
    -0.0000  -0.0000  -0.0000  -0.0000

          k =-0.4965-0.2867 0.0003     band energies (ev):

    -9.0253  -8.6015  -7.4881  -3.9301  -0.6400   1.2529   3.2628   4.5234
     7.3646   9.2784  12.7374  14.5593  16.6136  17.3259  19.0029  21.1236
    23.8494  25.0903  26.4267  27.4402

     occupation numbers 
     1.0000   1.0000   1.0000   1.0000   1.0000   1.0000   1.0000   1.0000
    -0.0012  -0.0000  -0.0000  -0.0000  -0.0000  -0.0000  -0.0000  -0.0000
    -0.0000  -0.0000  -0.0000  -0.0000

          k =-0.4965-0.0000 0.0002     band energies (ev):

    -9.5236  -9.1868  -4.8760  -3.2295  -2.4593  -0.7283   2.7883   4.3973
     8.4920  10.4387  14.7401  17.0798  17.5757  17.7848  18.6006  19.2572
    20.1091  23.7395  24.4750  25.0423

     occupation numbers 
     1.0000   1.0000   1.0000   1.0000   1.0000   1.0000   1.0000   1.0000
    -0.0000  -0.0000  -0.0000  -0.0000  -0.0000  -0.0000  -0.0000  -0.0000
    -0.0000  -0.0000  -0.0000  -0.0000

          k =-0.4965-0.8600 0.0006     band energies (ev):

    -9.0254  -8.6006  -7.4900  -3.9307  -0.6476   1.2528   3.2638   4.5217
     7.3583   9.2791  12.7377  14.5586  16.6072  17.3254  19.0124  21.0991
    23.8469  25.0923  26.5670  27.4403

     occupation numbers 
     1.0000   1.0000   1.0000   1.0000   1.0000   1.0000   1.0000   1.0000
     0.0040  -0.0000  -0.0000  -0.0000  -0.0000  -0.0000  -0.0000  -0.0000
    -0.0000  -0.0000  -0.0000  -0.0000

     the Fermi energy is     7.1340 ev

!    total energy              =     -76.71277709 Ry
     Harris-Foulkes estimate   =     -76.83048901 Ry
     estimated scf accuracy    <       0.20863513 Ry

     total all-electron energy =      -311.779129 Ry

     The total energy is the sum of the following terms:

     one-electron contribution =     -19.05296906 Ry
     hartree contribution      =      17.82543510 Ry
     xc contribution           =     -16.67717077 Ry
     ewald contribution        =     -31.21196426 Ry
     DFT-D3 Dispersion         =      -0.02325364 Ry
     scf correction            =      -0.66715068 Ry
     one-center paw contrib.   =     -26.90592135 Ry
      -> PAW hartree energy AE =      43.14532502 Ry
      -> PAW hartree energy PS =     -43.08098479 Ry
      -> PAW xc energy AE      =     -43.20408689 Ry
      -> PAW xc energy PS      =      16.23382532 Ry
      -> total E_H with PAW    =      17.88977533 Ry
      -> total E_XC with PAW   =     -43.64743235 Ry
     smearing contrib. (-TS)   =       0.00021757 Ry

     iteration #  3     ecut=    52.00 Ry     beta= 0.70
     Davidson diagonalization with overlap

     total cpu time spent up to now is        5.7 secs

          k = 0.0000 0.0000 0.0000     band energies (ev):

   -13.7455 -12.4618  -2.1052  -0.0794   2.5693   2.6124   4.3511   4.3517
     9.2303  13.8163  13.8177  14.3871  16.4405  16.4412  16.8037  17.5775
    17.8581  19.1331  22.6292  27.6905

     occupation numbers 
     1.0000   1.0000   1.0000   1.0000   1.0000   1.0000   1.0000   1.0000
    -0.0000  -0.0000  -0.0000  -0.0000  -0.0000  -0.0000  -0.0000  -0.0000
    -0.0000  -0.0000  -0.0000  -0.0000

          k = 0.0000 0.2867-0.0001     band energies (ev):

   -12.2989 -11.2220  -1.7813  -0.3837   0.2584   0.6079   1.5470   2.5283
    11.1114  12.7051  13.4666  14.0556  15.7673  16.8650  18.7821  20.2713
    20.6591  21.2508  24.4163  24.7892

     occupation numbers 
     1.0000   1.0000   1.0000   1.0000   1.0000   1.0000   1.0000   1.0000
    -0.0000  -0.0000  -0.0000  -0.0000  -0.0000  -0.0000  -0.0000  -0.0000
    -0.0000  -0.0000  -0.0000  -0.0000

          k =-0.0000-0.5733 0.0003     band energies (ev):

    -9.0255  -8.6018  -7.4876  -3.9305  -0.6451   1.2528   3.2636   4.5217
     7.3667   9.2786  12.7375  14.5588  16.6059  17.3256  19.0084  21.1044
    23.8472  25.0913  26.6405  27.4398

     occupation numbers 
     1.0000   1.0000   1.0000   1.0000   1.0000   1.0000   1.0000   1.0000
    -0.0029  -0.0000  -0.0000  -0.0000  -0.0000  -0.0000  -0.0000  -0.0000
    -0.0000  -0.0000  -0.0000  -0.0000

          k = 0.2483 0.1433-0.0002     band energies (ev):

   -12.2991 -11.2220  -1.7834  -0.3846   0.2580   0.6076   1.5472   2.5285
    11.1108  12.7051  13.4648  14.0526  15.7678  16.8648  18.7800  20.2659
    20.6571  21.2511  24.4230  24.8741

     occupation numbers 
     1.0000   1.0000   1.0000   1.0000   1.0000   1.0000   1.0000   1.0000
    -0.0000  -0.0000  -0.0000  -0.0000  -0.0000  -0.0000  -0.0000  -0.0000
    -0.0000  -0.0000  -0.0000  -0.0000

          k = 0.2483 0.4300-0.0003     band energies (ev):

    -9.5239  -9.1868  -4.8729  -3.2299  -2.4590  -0.7284   2.7952   4.3977
     8.4579  10.4419  14.7463  17.0464  17.5792  17.8192  18.5841  19.2910
    20.1239  23.7605  24.4456  25.3815

     occupation numbers 
     1.0000   1.0000   1.0000   1.0000   1.0000   1.0000   1.0000   1.0000
    -0.0000  -0.0000  -0.0000  -0.0000  -0.0000  -0.0000  -0.0000  -0.0000
    -0.0000  -0.0000  -0.0000  -0.0000

          k = 0.2483-0.4300 0.0001     band energies (ev):

    -9.5234  -9.1868  -4.8751  -3.2309  -2.4570  -0.7285   2.7807   4.3978
     8.4123  10.4421  14.7418  17.1036  17.5677  17.7950  18.6018  19.2694
    20.1163  23.7896  24.5249  24.6261

     occupation numbers 
     1.0000   1.0000   1.0000   1.0000   1.0000   1.0000   1.0000   1.0000
    -0.0000  -0.0000  -0.0000  -0.0000  -0.0000  -0.0000  -0.0000  -0.0000
    -0.0000  -0.0000  -0.0000  -0.0000

          k = 0.2483-0.1433-0.0000     band energies (ev):

   -12.2989 -11.2220  -1.7827  -0.3834   0.2583   0.6095   1.5470   2.5284
    11.1111  12.7055  13.4682  14.0561  15.7674  16.8652  18.7822  20.2710
    20.6581  21.2513  24.4169  24.7873

     occupation numbers 
     1.0000   1.0000   1.0000   1.0000   1.0000   1.0000   1.0000   1.0000
    -0.0000  -0.0000  -0.0000  -0.0000  -0.0000  -0.0000  -0.0000  -0.0000
    -0.0000  -0.0000  -0.0000  -0.0000

          k =-0.4965-0.2867 0.0003     band energies (ev):

    -9.0253  -8.6015  -7.4881  -3.9301  -0.6400   1.2529   3.2628   4.5234
     7.3646   9.2784  12.7374  14.5593  16.6136  17.3259  19.0029  21.1236
    23.8494  25.0903  26.4267  27.4402

     occupation numbers 
     1.0000   1.0000   1.0000   1.0000   1.0000   1.0000   1.0000   1.0000
    -0.0012  -0.0000  -0.0000  -0.0000  -0.0000  -0.0000  -0.0000  -0.0000
    -0.0000  -0.0000  -0.0000  -0.0000

          k =-0.4965-0.0000 0.0002     band energies (ev):

    -9.5236  -9.1868  -4.8760  -3.2295  -2.4593  -0.7283   2.7883   4.3973
     8.4920  10.4387  14.7401  17.0798  17.5757  17.7848  18.6006  19.2572
    20.1091  23.7395  24.4750  25.0423

     occupation numbers 
     1.0000   1.0000   1.0000   1.0000   1.0000   1.0000   1.0000   1.0000
    -0.0000  -0.0000  -0.0000  -0.0000  -0.0000  -0.0000  -0.0000  -0.0000
    -0.0000  -0.0000  -0.0000  -0.0000

          k =-0.4965-0.8600 0.0006     band energies (ev):

    -9.0254  -8.6006  -7.4900  -3.9307  -0.6476   1.2528   3.2638   4.5217
     7.3583   9.2791  12.7377  14.5586  16.6072  17.3254  19.0124  21.0991
    23.8469  25.0923  26.5670  27.4403

     occupation numbers 
     1.0000   1.0000   1.0000   1.0000   1.0000   1.0000   1.0000   1.0000
     0.0040  -0.0000  -0.0000  -0.0000  -0.0000  -0.0000  -0.0000  -0.0000
    -0.0000  -0.0000  -0.0000  -0.0000

     the Fermi energy is     7.1340 ev

!    total energy              =     -76.71277709 Ry
     Harris-Foulkes estimate   =     -76.83048901 Ry
     estimated scf accuracy    <       0.20863513 Ry

     total all-electron energy =      -311.779129 Ry

     The total energy is the sum of the following terms:

     one-electron contribution =     -19.05296906 Ry
     hartree contribution      =      17.82543510 Ry
     xc contribution           =     -16.67717077 Ry
     ewald contribution        =     -31.21196426 Ry
     DFT-D3 Dispersion         =      -0.02325364 Ry
     scf correction            =      -0.66715068 Ry
     one-center paw contrib.   =     -26.90592135 Ry
      -> PAW hartree energy AE =      43.14532502 Ry
      -> PAW hartree energy PS =     -43.08098479 Ry
      -> PAW xc energy AE      =     -43.20408689 Ry
      -> PAW xc energy PS      =      16.23382532 Ry
      -> total E_H with PAW    =      17.88977533 Ry
      -> total E_XC with PAW   =     -43.64743235 Ry
     smearing contrib. (-TS)   =       0.00021757 Ry

     iteration #  3     ecut=    52.00 Ry     beta= 0.70
     Davidson diagonalization with overlap
     ethr =  1.30E-03,  avg # of iterations =  4.3
     ethr =  1.30E-03,  avg # of iterations =  4.3

     total cpu time spent up to now is        6.4 secs

          k = 0.0000 0.0000 0.0000     band energies (ev):

   -14.0597 -13.3480  -2.1286  -0.8458   2.3698   2.3700   2.9781   3.0096
     9.1206  13.6455  14.1947  14.1968  15.7189  15.7193  16.8990  17.1673
    17.9601  18.3756  22.2898  28.0655

     occupation numbers 
     1.0000   1.0000   1.0000   1.0000   1.0000   1.0000   1.0000   1.0000
    -0.0000  -0.0000  -0.0000  -0.0000  -0.0000  -0.0000  -0.0000  -0.0000
    -0.0000  -0.0000  -0.0000  -0.0000

          k = 0.0000 0.2867-0.0001     band energies (ev):

   -12.8957 -11.9044  -1.3980  -1.3546  -0.4440   0.7165   0.7538   1.0120
    10.9857  12.7872  13.0866  13.8276  15.0664  16.9954  19.1675  19.5799
    20.2463  20.7008  24.0463  24.7272

     occupation numbers 
     1.0000   1.0000   1.0000   1.0000   1.0000   1.0000   1.0000   1.0000
    -0.0000  -0.0000  -0.0000  -0.0000  -0.0000  -0.0000  -0.0000  -0.0000
    -0.0000  -0.0000  -0.0000  -0.0000

          k =-0.0000-0.5733 0.0003     band energies (ev):

   -10.9551  -8.2111  -7.1020  -5.1656  -0.4326  -0.3429   2.7675   3.6120
     7.6437   8.9514  13.0988  13.8569  16.4276  17.2878  18.7583  21.1793
    23.1418  25.4854  26.0422  26.0801

     occupation numbers 
     1.0000   1.0000   1.0000   1.0000   1.0000   1.0000   1.0000   1.0000
    -0.0016  -0.0000  -0.0000  -0.0000  -0.0000  -0.0000  -0.0000  -0.0000
    -0.0000  -0.0000  -0.0000  -0.0000

          k = 0.2483 0.1433-0.0002     band energies (ev):

   -12.8956 -11.9044  -1.3995  -1.3546  -0.4442   0.7169   0.7539   1.0120
    10.9856  12.7904  13.0802  13.8281  15.0665  16.9949  19.1650  19.5791
    20.2464  20.6987  24.0484  24.7526

     occupation numbers 
     1.0000   1.0000   1.0000   1.0000   1.0000   1.0000   1.0000   1.0000
    -0.0000  -0.0000  -0.0000  -0.0000  -0.0000  -0.0000  -0.0000  -0.0000
    -0.0000  -0.0000  -0.0000  -0.0000

          k = 0.2483 0.4300-0.0003     band energies (ev):

   -11.0742  -9.1279  -4.4815  -3.8972  -2.8392  -2.1345   2.4277   3.4309
     8.7419   9.8875  14.5526  17.0424  17.7101  17.9127  18.4931  18.6229
    19.3902  23.3246  23.5751  24.2890

     occupation numbers 
     1.0000   1.0000   1.0000   1.0000   1.0000   1.0000   1.0000   1.0000
    -0.0000  -0.0000  -0.0000  -0.0000  -0.0000  -0.0000  -0.0000  -0.0000
    -0.0000  -0.0000  -0.0000  -0.0000

          k = 0.2483-0.4300 0.0001     band energies (ev):

   -11.0741  -9.1279  -4.4806  -3.8947  -2.8384  -2.1382   2.4285   3.4281
     8.7025   9.8880  14.5556  17.0552  17.7104  17.9110  18.4873  18.6248
    19.3935  23.3765  23.6192  24.4156

     occupation numbers 
     1.0000   1.0000   1.0000   1.0000   1.0000   1.0000   1.0000   1.0000
    -0.0000  -0.0000  -0.0000  -0.0000  -0.0000  -0.0000  -0.0000  -0.0000
    -0.0000  -0.0000  -0.0000  -0.0000

          k = 0.2483-0.1433-0.0000     band energies (ev):

   -12.8957 -11.9044  -1.3984  -1.3548  -0.4440   0.7164   0.7540   1.0126
    10.9856  12.7869  13.0870  13.8278  15.0667  16.9952  19.1676  19.5796
    20.2465  20.7009  24.0472  24.7259

     occupation numbers 
     1.0000   1.0000   1.0000   1.0000   1.0000   1.0000   1.0000   1.0000
    -0.0000  -0.0000  -0.0000  -0.0000  -0.0000  -0.0000  -0.0000  -0.0000
    -0.0000  -0.0000  -0.0000  -0.0000

          k =-0.4965-0.2867 0.0003     band energies (ev):

   -10.9550  -8.2100  -7.1034  -5.1656  -0.4327  -0.3425   2.7666   3.6051
     7.6410   8.9505  13.0995  13.8568  16.4295  17.2867  18.7478  21.1998
    23.1413  24.9766  25.4763  26.0787

     occupation numbers 
     1.0000   1.0000   1.0000   1.0000   1.0000   1.0000   1.0000   1.0000
     0.0005  -0.0000  -0.0000  -0.0000  -0.0000  -0.0000  -0.0000  -0.0000
    -0.0000  -0.0000  -0.0000  -0.0000

          k =-0.4965-0.0000 0.0002     band energies (ev):

   -11.0737  -9.1274  -4.4814  -3.8919  -2.8346  -2.1306   2.4294   3.4389
     8.7871   9.8893  14.5573  17.0592  17.7106  17.9167  18.5073  18.6246
    19.3943  23.3528  24.3288  24.8361

     occupation numbers 
     1.0000   1.0000   1.0000   1.0000   1.0000   1.0000   1.0000   1.0000
    -0.0000  -0.0000  -0.0000  -0.0000  -0.0000  -0.0000  -0.0000  -0.0000
    -0.0000  -0.0000  -0.0000  -0.0000

          k =-0.4965-0.8600 0.0006     band energies (ev):

   -10.9550  -8.2110  -7.1028  -5.1626  -0.4323  -0.3427   2.7669   3.6005
     7.6403   8.9515  13.0981  13.8575  16.4301  17.2859  18.7541  21.1785
    23.1509  25.0142  25.4757  26.0310

     occupation numbers 
     1.0000   1.0000   1.0000   1.0000   1.0000   1.0000   1.0000   1.0000
     0.0011  -0.0000  -0.0000  -0.0000  -0.0000  -0.0000  -0.0000  -0.0000
    -0.0000  -0.0000  -0.0000  -0.0000

     the Fermi energy is     7.4125 ev

!    total energy              =     -76.77222590 Ry
     Harris-Foulkes estimate   =     -76.77619321 Ry
     estimated scf accuracy    <       0.00998375 Ry

     total all-electron energy =      -311.838578 Ry

     The total energy is the sum of the following terms:

     one-electron contribution =     -20.10764513 Ry
     hartree contribution      =      17.98699068 Ry
     xc contribution           =     -16.71616552 Ry
     ewald contribution        =     -31.21196426 Ry
     DFT-D3 Dispersion         =      -0.02325364 Ry
     scf correction            =       0.18312013 Ry
     one-center paw contrib.   =     -26.88352560 Ry
      -> PAW hartree energy AE =      45.63552178 Ry
      -> PAW hartree energy PS =     -45.57151163 Ry
      -> PAW xc energy AE      =     -43.71549836 Ry
      -> PAW xc energy PS      =      16.76796261 Ry
      -> total E_H with PAW    =      18.05100083 Ry
      -> total E_XC with PAW   =     -43.66370127 Ry
     smearing contrib. (-TS)   =       0.00021745 Ry

     iteration #  4     ecut=    52.00 Ry     beta= 0.70
     Davidson diagonalization with overlap

     total cpu time spent up to now is        6.4 secs

          k = 0.0000 0.0000 0.0000     band energies (ev):

   -14.0597 -13.3480  -2.1286  -0.8458   2.3698   2.3700   2.9781   3.0096
     9.1206  13.6455  14.1947  14.1968  15.7189  15.7193  16.8990  17.1673
    17.9601  18.3756  22.2898  28.0655

     occupation numbers 
     1.0000   1.0000   1.0000   1.0000   1.0000   1.0000   1.0000   1.0000
    -0.0000  -0.0000  -0.0000  -0.0000  -0.0000  -0.0000  -0.0000  -0.0000
    -0.0000  -0.0000  -0.0000  -0.0000

          k = 0.0000 0.2867-0.0001     band energies (ev):

   -12.8957 -11.9044  -1.3980  -1.3546  -0.4440   0.7165   0.7538   1.0120
    10.9857  12.7872  13.0866  13.8276  15.0664  16.9954  19.1675  19.5799
    20.2463  20.7008  24.0463  24.7272

     occupation numbers 
     1.0000   1.0000   1.0000   1.0000   1.0000   1.0000   1.0000   1.0000
    -0.0000  -0.0000  -0.0000  -0.0000  -0.0000  -0.0000  -0.0000  -0.0000
    -0.0000  -0.0000  -0.0000  -0.0000

          k =-0.0000-0.5733 0.0003     band energies (ev):

   -10.9551  -8.2111  -7.1020  -5.1656  -0.4326  -0.3429   2.7675   3.6120
     7.6437   8.9514  13.0988  13.8569  16.4276  17.2878  18.7583  21.1793
    23.1418  25.4854  26.0422  26.0801

     occupation numbers 
     1.0000   1.0000   1.0000   1.0000   1.0000   1.0000   1.0000   1.0000
    -0.0016  -0.0000  -0.0000  -0.0000  -0.0000  -0.0000  -0.0000  -0.0000
    -0.0000  -0.0000  -0.0000  -0.0000

          k = 0.2483 0.1433-0.0002     band energies (ev):

   -12.8956 -11.9044  -1.3995  -1.3546  -0.4442   0.7169   0.7539   1.0120
    10.9856  12.7904  13.0802  13.8281  15.0665  16.9949  19.1650  19.5791
    20.2464  20.6987  24.0484  24.7526

     occupation numbers 
     1.0000   1.0000   1.0000   1.0000   1.0000   1.0000   1.0000   1.0000
    -0.0000  -0.0000  -0.0000  -0.0000  -0.0000  -0.0000  -0.0000  -0.0000
    -0.0000  -0.0000  -0.0000  -0.0000

          k = 0.2483 0.4300-0.0003     band energies (ev):

   -11.0742  -9.1279  -4.4815  -3.8972  -2.8392  -2.1345   2.4277   3.4309
     8.7419   9.8875  14.5526  17.0424  17.7101  17.9127  18.4931  18.6229
    19.3902  23.3246  23.5751  24.2890

     occupation numbers 
     1.0000   1.0000   1.0000   1.0000   1.0000   1.0000   1.0000   1.0000
    -0.0000  -0.0000  -0.0000  -0.0000  -0.0000  -0.0000  -0.0000  -0.0000
    -0.0000  -0.0000  -0.0000  -0.0000

          k = 0.2483-0.4300 0.0001     band energies (ev):

   -11.0741  -9.1279  -4.4806  -3.8947  -2.8384  -2.1382   2.4285   3.4281
     8.7025   9.8880  14.5556  17.0552  17.7104  17.9110  18.4873  18.6248
    19.3935  23.3765  23.6192  24.4156

     occupation numbers 
     1.0000   1.0000   1.0000   1.0000   1.0000   1.0000   1.0000   1.0000
    -0.0000  -0.0000  -0.0000  -0.0000  -0.0000  -0.0000  -0.0000  -0.0000
    -0.0000  -0.0000  -0.0000  -0.0000

          k = 0.2483-0.1433-0.0000     band energies (ev):

   -12.8957 -11.9044  -1.3984  -1.3548  -0.4440   0.7164   0.7540   1.0126
    10.9856  12.7869  13.0870  13.8278  15.0667  16.9952  19.1676  19.5796
    20.2465  20.7009  24.0472  24.7259

     occupation numbers 
     1.0000   1.0000   1.0000   1.0000   1.0000   1.0000   1.0000   1.0000
    -0.0000  -0.0000  -0.0000  -0.0000  -0.0000  -0.0000  -0.0000  -0.0000
    -0.0000  -0.0000  -0.0000  -0.0000

          k =-0.4965-0.2867 0.0003     band energies (ev):

   -10.9550  -8.2100  -7.1034  -5.1656  -0.4327  -0.3425   2.7666   3.6051
     7.6410   8.9505  13.0995  13.8568  16.4295  17.2867  18.7478  21.1998
    23.1413  24.9766  25.4763  26.0787

     occupation numbers 
     1.0000   1.0000   1.0000   1.0000   1.0000   1.0000   1.0000   1.0000
     0.0005  -0.0000  -0.0000  -0.0000  -0.0000  -0.0000  -0.0000  -0.0000
    -0.0000  -0.0000  -0.0000  -0.0000

          k =-0.4965-0.0000 0.0002     band energies (ev):

   -11.0737  -9.1274  -4.4814  -3.8919  -2.8346  -2.1306   2.4294   3.4389
     8.7871   9.8893  14.5573  17.0592  17.7106  17.9167  18.5073  18.6246
    19.3943  23.3528  24.3288  24.8361

     occupation numbers 
     1.0000   1.0000   1.0000   1.0000   1.0000   1.0000   1.0000   1.0000
    -0.0000  -0.0000  -0.0000  -0.0000  -0.0000  -0.0000  -0.0000  -0.0000
    -0.0000  -0.0000  -0.0000  -0.0000

          k =-0.4965-0.8600 0.0006     band energies (ev):

   -10.9550  -8.2110  -7.1028  -5.1626  -0.4323  -0.3427   2.7669   3.6005
     7.6403   8.9515  13.0981  13.8575  16.4301  17.2859  18.7541  21.1785
    23.1509  25.0142  25.4757  26.0310

     occupation numbers 
     1.0000   1.0000   1.0000   1.0000   1.0000   1.0000   1.0000   1.0000
     0.0011  -0.0000  -0.0000  -0.0000  -0.0000  -0.0000  -0.0000  -0.0000
    -0.0000  -0.0000  -0.0000  -0.0000

     the Fermi energy is     7.4125 ev

!    total energy              =     -76.77222590 Ry
     Harris-Foulkes estimate   =     -76.77619321 Ry
     estimated scf accuracy    <       0.00998375 Ry

     total all-electron energy =      -311.838578 Ry

     The total energy is the sum of the following terms:

     one-electron contribution =     -20.10764513 Ry
     hartree contribution      =      17.98699068 Ry
     xc contribution           =     -16.71616552 Ry
     ewald contribution        =     -31.21196426 Ry
     DFT-D3 Dispersion         =      -0.02325364 Ry
     scf correction            =       0.18312013 Ry
     one-center paw contrib.   =     -26.88352560 Ry
      -> PAW hartree energy AE =      45.63552178 Ry
      -> PAW hartree energy PS =     -45.57151163 Ry
      -> PAW xc energy AE      =     -43.71549836 Ry
      -> PAW xc energy PS      =      16.76796261 Ry
      -> total E_H with PAW    =      18.05100083 Ry
      -> total E_XC with PAW   =     -43.66370127 Ry
     smearing contrib. (-TS)   =       0.00021745 Ry

     iteration #  4     ecut=    52.00 Ry     beta= 0.70
     Davidson diagonalization with overlap
     ethr =  6.24E-05,  avg # of iterations =  4.0
     ethr =  6.24E-05,  avg # of iterations =  4.0

     total cpu time spent up to now is        7.3 secs

          k = 0.0000 0.0000 0.0000     band energies (ev):

   -13.6500 -13.4971  -2.1267  -0.6849   2.7145   2.7157   2.9431   2.9439
     9.1817  13.8533  13.9160  13.9177  16.0754  16.0769  16.8913  17.2069
    17.7224  18.6394  22.4103  27.8640

     occupation numbers 
     1.0000   1.0000   1.0000   1.0000   1.0000   1.0000   1.0000   1.0000
    -0.0000  -0.0000  -0.0000  -0.0000  -0.0000  -0.0000  -0.0000  -0.0000
    -0.0000  -0.0000  -0.0000  -0.0000

          k = 0.0000 0.2867-0.0001     band energies (ev):

   -12.3948 -12.1328  -1.6374  -0.8548  -0.4145   0.7479   0.8724   1.2952
    11.0492  12.7889  13.1922  13.5780  15.4049  17.0300  18.8885  19.8647
    20.4697  20.6471  24.1529  24.7658

     occupation numbers 
     1.0000   1.0000   1.0000   1.0000   1.0000   1.0000   1.0000   1.0000
    -0.0000  -0.0000  -0.0000  -0.0000  -0.0000  -0.0000  -0.0000  -0.0000
    -0.0000  -0.0000  -0.0000  -0.0000

          k =-0.0000-0.5733 0.0003     band energies (ev):

   -10.4006  -8.4520  -7.3474  -4.7159  -0.5935   0.0940   3.2210   3.4148
     7.4310   9.1991  12.8666  14.1789  16.4986  17.3276  18.8114  21.2065
    23.2988  25.0226  25.2153  25.9999

     occupation numbers 
     1.0000   1.0000   1.0000   1.0000   1.0000   1.0000   1.0000   1.0000
     0.0000  -0.0000  -0.0000  -0.0000  -0.0000  -0.0000  -0.0000  -0.0000
    -0.0000  -0.0000  -0.0000  -0.0000

          k = 0.2483 0.1433-0.0002     band energies (ev):

   -12.3948 -12.1328  -1.6371  -0.8550  -0.4145   0.7478   0.8725   1.2954
    11.0492  12.7900  13.1907  13.5776  15.4055  17.0296  18.8881  19.8654
    20.4695  20.6465  24.1558  24.7772

     occupation numbers 
     1.0000   1.0000   1.0000   1.0000   1.0000   1.0000   1.0000   1.0000
    -0.0000  -0.0000  -0.0000  -0.0000  -0.0000  -0.0000  -0.0000  -0.0000
    -0.0000  -0.0000  -0.0000  -0.0000

          k = 0.2483 0.4300-0.0003     band energies (ev):

   -10.5273  -9.3693  -4.7288  -3.4185  -3.0846  -1.6562   2.6663   3.4540
     8.4446  10.1646  14.6289  17.0345  17.6922  17.7632  18.5695  18.7122
    19.6747  23.4753  23.5577  24.3003

     occupation numbers 
     1.0000   1.0000   1.0000   1.0000   1.0000   1.0000   1.0000   1.0000
    -0.0000  -0.0000  -0.0000  -0.0000  -0.0000  -0.0000  -0.0000  -0.0000
    -0.0000  -0.0000  -0.0000  -0.0000

          k = 0.2483-0.4300 0.0001     band energies (ev):

   -10.5274  -9.3695  -4.7277  -3.4178  -3.0856  -1.6568   2.6662   3.4536
     8.4439  10.1659  14.6288  17.0405  17.6904  17.7633  18.5560  18.7122
    19.6745  23.4739  23.5742  24.2909

     occupation numbers 
     1.0000   1.0000   1.0000   1.0000   1.0000   1.0000   1.0000   1.0000
    -0.0000  -0.0000  -0.0000  -0.0000  -0.0000  -0.0000  -0.0000  -0.0000
    -0.0000  -0.0000  -0.0000  -0.0000

          k = 0.2483-0.1433-0.0000     band energies (ev):

   -12.3949 -12.1328  -1.6366  -0.8545  -0.4145   0.7473   0.8724   1.2950
    11.0492  12.7890  13.1922  13.5767  15.4047  17.0297  18.8890  19.8644
    20.4705  20.6474  24.1539  24.7656

     occupation numbers 
     1.0000   1.0000   1.0000   1.0000   1.0000   1.0000   1.0000   1.0000
    -0.0000  -0.0000  -0.0000  -0.0000  -0.0000  -0.0000  -0.0000  -0.0000
    -0.0000  -0.0000  -0.0000  -0.0000

          k =-0.4965-0.2867 0.0003     band energies (ev):

   -10.4007  -8.4525  -7.3465  -4.7159  -0.5936   0.0941   3.2178   3.4191
     7.4305   9.1983  12.8661  14.1794  16.4995  17.3272  18.8062  21.2288
    23.3034  24.9807  25.2149  26.5272

     occupation numbers 
     1.0000   1.0000   1.0000   1.0000   1.0000   1.0000   1.0000   1.0000
     0.0004  -0.0000  -0.0000  -0.0000  -0.0000  -0.0000  -0.0000  -0.0000
    -0.0000  -0.0000  -0.0000  -0.0000

          k =-0.4965-0.0000 0.0002     band energies (ev):

   -10.5274  -9.3695  -4.7272  -3.4179  -3.0860  -1.6567   2.6662   3.4539
     8.4444  10.1647  14.6288  17.0335  17.6921  17.7621  18.5702  18.7110
    19.6744  23.4733  23.5570  24.2982

     occupation numbers 
     1.0000   1.0000   1.0000   1.0000   1.0000   1.0000   1.0000   1.0000
    -0.0000  -0.0000  -0.0000  -0.0000  -0.0000  -0.0000  -0.0000  -0.0000
    -0.0000  -0.0000  -0.0000  -0.0000

          k =-0.4965-0.8600 0.0006     band energies (ev):

   -10.4009  -8.4537  -7.3451  -4.7153  -0.5939   0.0939   3.2211   3.4144
     7.4315   9.1992  12.8652  14.1791  16.4989  17.3266  18.8102  21.2085
    23.3004  25.0193  25.2153  26.0024

     occupation numbers 
     1.0000   1.0000   1.0000   1.0000   1.0000   1.0000   1.0000   1.0000
    -0.0004  -0.0000  -0.0000  -0.0000  -0.0000  -0.0000  -0.0000  -0.0000
    -0.0000  -0.0000  -0.0000  -0.0000

     the Fermi energy is     7.2019 ev

!    total energy              =     -76.77725459 Ry
     Harris-Foulkes estimate   =     -76.77744114 Ry
     estimated scf accuracy    <       0.00051447 Ry

     total all-electron energy =      -311.843607 Ry

     The total energy is the sum of the following terms:

     one-electron contribution =     -19.91872002 Ry
     hartree contribution      =      17.94274761 Ry
     xc contribution           =     -16.70503412 Ry
     ewald contribution        =     -31.21196426 Ry
     DFT-D3 Dispersion         =      -0.02325364 Ry
     scf correction            =       0.01297979 Ry
     one-center paw contrib.   =     -26.87422737 Ry
      -> PAW hartree energy AE =      46.39542296 Ry
      -> PAW hartree energy PS =     -46.33165651 Ry
      -> PAW xc energy AE      =     -43.86027035 Ry
      -> PAW xc energy PS      =      16.92227653 Ry
      -> total E_H with PAW    =      18.00651406 Ry
      -> total E_XC with PAW   =     -43.64302795 Ry
     smearing contrib. (-TS)   =       0.00021742 Ry

     iteration #  5     ecut=    52.00 Ry     beta= 0.70
     Davidson diagonalization with overlap

     total cpu time spent up to now is        7.3 secs

          k = 0.0000 0.0000 0.0000     band energies (ev):

   -13.6500 -13.4971  -2.1267  -0.6849   2.7145   2.7157   2.9431   2.9439
     9.1817  13.8533  13.9160  13.9177  16.0754  16.0769  16.8913  17.2069
    17.7224  18.6394  22.4103  27.8640

     occupation numbers 
     1.0000   1.0000   1.0000   1.0000   1.0000   1.0000   1.0000   1.0000
    -0.0000  -0.0000  -0.0000  -0.0000  -0.0000  -0.0000  -0.0000  -0.0000
    -0.0000  -0.0000  -0.0000  -0.0000

          k = 0.0000 0.2867-0.0001     band energies (ev):

   -12.3948 -12.1328  -1.6374  -0.8548  -0.4145   0.7479   0.8724   1.2952
    11.0492  12.7889  13.1922  13.5780  15.4049  17.0300  18.8885  19.8647
    20.4697  20.6471  24.1529  24.7658

     occupation numbers 
     1.0000   1.0000   1.0000   1.0000   1.0000   1.0000   1.0000   1.0000
    -0.0000  -0.0000  -0.0000  -0.0000  -0.0000  -0.0000  -0.0000  -0.0000
    -0.0000  -0.0000  -0.0000  -0.0000

          k =-0.0000-0.5733 0.0003     band energies (ev):

   -10.4006  -8.4520  -7.3474  -4.7159  -0.5935   0.0940   3.2210   3.4148
     7.4310   9.1991  12.8666  14.1789  16.4986  17.3276  18.8114  21.2065
    23.2988  25.0226  25.2153  25.9999

     occupation numbers 
     1.0000   1.0000   1.0000   1.0000   1.0000   1.0000   1.0000   1.0000
     0.0000  -0.0000  -0.0000  -0.0000  -0.0000  -0.0000  -0.0000  -0.0000
    -0.0000  -0.0000  -0.0000  -0.0000

          k = 0.2483 0.1433-0.0002     band energies (ev):

   -12.3948 -12.1328  -1.6371  -0.8550  -0.4145   0.7478   0.8725   1.2954
    11.0492  12.7900  13.1907  13.5776  15.4055  17.0296  18.8881  19.8654
    20.4695  20.6465  24.1558  24.7772

     occupation numbers 
     1.0000   1.0000   1.0000   1.0000   1.0000   1.0000   1.0000   1.0000
    -0.0000  -0.0000  -0.0000  -0.0000  -0.0000  -0.0000  -0.0000  -0.0000
    -0.0000  -0.0000  -0.0000  -0.0000

          k = 0.2483 0.4300-0.0003     band energies (ev):

   -10.5273  -9.3693  -4.7288  -3.4185  -3.0846  -1.6562   2.6663   3.4540
     8.4446  10.1646  14.6289  17.0345  17.6922  17.7632  18.5695  18.7122
    19.6747  23.4753  23.5577  24.3003

     occupation numbers 
     1.0000   1.0000   1.0000   1.0000   1.0000   1.0000   1.0000   1.0000
    -0.0000  -0.0000  -0.0000  -0.0000  -0.0000  -0.0000  -0.0000  -0.0000
    -0.0000  -0.0000  -0.0000  -0.0000

          k = 0.2483-0.4300 0.0001     band energies (ev):

   -10.5274  -9.3695  -4.7277  -3.4178  -3.0856  -1.6568   2.6662   3.4536
     8.4439  10.1659  14.6288  17.0405  17.6904  17.7633  18.5560  18.7122
    19.6745  23.4739  23.5742  24.2909

     occupation numbers 
     1.0000   1.0000   1.0000   1.0000   1.0000   1.0000   1.0000   1.0000
    -0.0000  -0.0000  -0.0000  -0.0000  -0.0000  -0.0000  -0.0000  -0.0000
    -0.0000  -0.0000  -0.0000  -0.0000

          k = 0.2483-0.1433-0.0000     band energies (ev):

   -12.3949 -12.1328  -1.6366  -0.8545  -0.4145   0.7473   0.8724   1.2950
    11.0492  12.7890  13.1922  13.5767  15.4047  17.0297  18.8890  19.8644
    20.4705  20.6474  24.1539  24.7656

     occupation numbers 
     1.0000   1.0000   1.0000   1.0000   1.0000   1.0000   1.0000   1.0000
    -0.0000  -0.0000  -0.0000  -0.0000  -0.0000  -0.0000  -0.0000  -0.0000
    -0.0000  -0.0000  -0.0000  -0.0000

          k =-0.4965-0.2867 0.0003     band energies (ev):

   -10.4007  -8.4525  -7.3465  -4.7159  -0.5936   0.0941   3.2178   3.4191
     7.4305   9.1983  12.8661  14.1794  16.4995  17.3272  18.8062  21.2288
    23.3034  24.9807  25.2149  26.5272

     occupation numbers 
     1.0000   1.0000   1.0000   1.0000   1.0000   1.0000   1.0000   1.0000
     0.0004  -0.0000  -0.0000  -0.0000  -0.0000  -0.0000  -0.0000  -0.0000
    -0.0000  -0.0000  -0.0000  -0.0000

          k =-0.4965-0.0000 0.0002     band energies (ev):

   -10.5274  -9.3695  -4.7272  -3.4179  -3.0860  -1.6567   2.6662   3.4539
     8.4444  10.1647  14.6288  17.0335  17.6921  17.7621  18.5702  18.7110
    19.6744  23.4733  23.5570  24.2982

     occupation numbers 
     1.0000   1.0000   1.0000   1.0000   1.0000   1.0000   1.0000   1.0000
    -0.0000  -0.0000  -0.0000  -0.0000  -0.0000  -0.0000  -0.0000  -0.0000
    -0.0000  -0.0000  -0.0000  -0.0000

          k =-0.4965-0.8600 0.0006     band energies (ev):

   -10.4009  -8.4537  -7.3451  -4.7153  -0.5939   0.0939   3.2211   3.4144
     7.4315   9.1992  12.8652  14.1791  16.4989  17.3266  18.8102  21.2085
    23.3004  25.0193  25.2153  26.0024

     occupation numbers 
     1.0000   1.0000   1.0000   1.0000   1.0000   1.0000   1.0000   1.0000
    -0.0004  -0.0000  -0.0000  -0.0000  -0.0000  -0.0000  -0.0000  -0.0000
    -0.0000  -0.0000  -0.0000  -0.0000

     the Fermi energy is     7.2019 ev

!    total energy              =     -76.77725459 Ry
     Harris-Foulkes estimate   =     -76.77744114 Ry
[...]
    11.0837  12.7388  13.2167  13.5195  15.4102  17.0451  18.8042  19.8798
    20.4060  20.6440  24.1530  24.7831

     occupation numbers 
     1.0000   1.0000   1.0000   1.0000   1.0000   1.0000   1.0000   1.0000
    -0.0000  -0.0000  -0.0000  -0.0000  -0.0000  -0.0000  -0.0000  -0.0000
    -0.0000  -0.0000  -0.0000  -0.0000

          k =-0.4965-0.2867 0.0003 (  1652 PWs)   bands (ev):

   -10.3768  -8.5215  -7.4123  -4.7056  -0.6771   0.1076   3.2215   3.4015
     7.3943   9.2036  12.8147  14.1935  16.5321  17.3505  18.8310  21.2493
    23.2910  24.9994  25.1126  25.9933

     occupation numbers 
     1.0000   1.0000   1.0000   1.0000   1.0000   1.0000   1.0000   1.0000
     0.0004  -0.0000  -0.0000  -0.0000  -0.0000  -0.0000  -0.0000  -0.0000
    -0.0000  -0.0000  -0.0000  -0.0000

          k =-0.4965-0.0000 0.0002 (  1669 PWs)   bands (ev):

   -10.5041  -9.4352  -4.8025  -3.4058  -3.1571  -1.6457   2.6582   3.4497
     8.3973  10.1707  14.6613  17.0591  17.6445  17.7268  18.5921  18.6977
    19.6799  23.4867  23.5749  24.3008

     occupation numbers 
     1.0000   1.0000   1.0000   1.0000   1.0000   1.0000   1.0000   1.0000
    -0.0000  -0.0000  -0.0000  -0.0000  -0.0000  -0.0000  -0.0000  -0.0000
    -0.0000  -0.0000  -0.0000  -0.0000

          k =-0.4965-0.8600 0.0006 (  1652 PWs)   bands (ev):

   -10.3767  -8.5216  -7.4121  -4.7055  -0.6771   0.1075   3.2255   3.3967
     7.3949   9.2042  12.8148  14.1937  16.5315  17.3508  18.8356  21.2285
    23.2916  25.0404  25.1129  25.9845

     occupation numbers 
     1.0000   1.0000   1.0000   1.0000   1.0000   1.0000   1.0000   1.0000
    -0.0001  -0.0000  -0.0000  -0.0000  -0.0000  -0.0000  -0.0000  -0.0000
    -0.0000  -0.0000  -0.0000  -0.0000

     the Fermi energy is     7.1656 ev

!    total energy              =     -76.77736095 Ry
     Harris-Foulkes estimate   =     -76.77736113 Ry
     estimated scf accuracy    <       0.00000034 Ry

     total all-electron energy =      -311.843713 Ry

     The total energy is the sum of the following terms:

     one-electron contribution =     -19.92274768 Ry
     hartree contribution      =      17.96315310 Ry
     xc contribution           =     -16.71044490 Ry
     ewald contribution        =     -31.21196426 Ry
     DFT-D3 Dispersion         =      -0.02325364 Ry
     one-center paw contrib.   =     -26.87232099 Ry
      -> PAW hartree energy AE =      46.59271039 Ry
      -> PAW hartree energy PS =     -46.52897413 Ry
      -> PAW xc energy AE      =     -43.90341392 Ry
      -> PAW xc energy PS      =      16.96735667 Ry
      -> total E_H with PAW    =      18.02688936 Ry
      -> total E_XC with PAW   =     -43.64650215 Ry
     smearing contrib. (-TS)   =       0.00021742 Ry

     convergence has been achieved in   7 iterations

     Forces acting on atoms (cartesian axes, Ry/au):

     atom    1 type  2   force =    -0.00000264    0.00000047    0.00096179
     atom    2 type  3   force =     0.00001725   -0.00000461    0.00011232
     atom    3 type  1   force =     0.00003745    0.00002674   -0.00041748
     atom    4 type  1   force =    -0.00005206   -0.00002260   -0.00065664
     The non-local contrib.  to forces
     atom    1 type  2   force =     0.00009398    0.00002501    0.00015227
     atom    2 type  3   force =    -0.00002733   -0.00003179   -0.00094369
     atom    3 type  1   force =     0.00003578    0.00006470   -0.00026330
     atom    4 type  1   force =    -0.00008595   -0.00004486   -0.00061944
     The ionic contribution  to forces
     atom    1 type  2   force =     0.00013685   -0.00003475    0.13726408
     atom    2 type  3   force =    -0.00028592   -0.00016619    0.23608202
     atom    3 type  1   force =     0.00023364    0.00024996   -0.18847383
     atom    4 type  1   force =    -0.00008457   -0.00004903   -0.18487228
     The local contribution  to forces
     atom    1 type  2   force =    -0.00017359    0.00002277   -0.13751527
     atom    2 type  3   force =     0.00029732    0.00016937   -0.23588054
     atom    3 type  1   force =    -0.00023158   -0.00030508    0.18894040
     atom    4 type  1   force =     0.00012159    0.00007678    0.18551427
     The core correction contribution to forces
     atom    1 type  2   force =    -0.00008682   -0.00003333    0.00067892
     atom    2 type  3   force =     0.00000281    0.00000194    0.00000747
     atom    3 type  1   force =    -0.00002490   -0.00001341   -0.00000972
     atom    4 type  1   force =    -0.00003470   -0.00002336   -0.00005288
     The Hubbard contrib.    to forces
     atom    1 type  2   force =     0.00000000    0.00000000    0.00000000
     atom    2 type  3   force =     0.00000000    0.00000000    0.00000000
     atom    3 type  1   force =     0.00000000    0.00000000    0.00000000
     atom    4 type  1   force =     0.00000000    0.00000000    0.00000000
     The SCF correction term to forces
     atom    1 type  2   force =    -0.00000267   -0.00000124    0.00042658
     atom    2 type  3   force =     0.00000081    0.00000005    0.00087964
     atom    3 type  1   force =    -0.00000502    0.00000861   -0.00062294
     atom    4 type  1   force =     0.00000256   -0.00000383   -0.00062077

     DFT-D3 dispersion contribution to forces:
     atom    1 type  2   force =     0.00000017    0.00000010   -0.00002705
     atom    2 type  3   force =     0.00000013    0.00000009   -0.00001483
     atom    3 type  1   force =     0.00000011    0.00000003    0.00002967
     atom    4 type  1   force =    -0.00000041   -0.00000022    0.00001220

     Total force =     0.001244     Total SCF correction =     0.001315

     DFT-D3 dispersion Force =     0.000045
     SCF correction compared to forces is large: reduce conv_thr to get better values


     Computing stress (Cartesian axis) and pressure


     Forces acting on atoms (cartesian axes, Ry/au):

     atom    1 type  2   force =    -0.00000264    0.00000047    0.00096179
     atom    2 type  3   force =     0.00001725   -0.00000461    0.00011232
     atom    3 type  1   force =     0.00003745    0.00002674   -0.00041748
     atom    4 type  1   force =    -0.00005206   -0.00002260   -0.00065664
     The non-local contrib.  to forces
     atom    1 type  2   force =     0.00009398    0.00002501    0.00015227
     atom    2 type  3   force =    -0.00002733   -0.00003179   -0.00094369
     atom    3 type  1   force =     0.00003578    0.00006470   -0.00026330
     atom    4 type  1   force =    -0.00008595   -0.00004486   -0.00061944
     The ionic contribution  to forces
     atom    1 type  2   force =     0.00013685   -0.00003475    0.13726408
     atom    2 type  3   force =    -0.00028592   -0.00016619    0.23608202
     atom    3 type  1   force =     0.00023364    0.00024996   -0.18847383
     atom    4 type  1   force =    -0.00008457   -0.00004903   -0.18487228
     The local contribution  to forces
     atom    1 type  2   force =    -0.00017359    0.00002277   -0.13751527
     atom    2 type  3   force =     0.00029732    0.00016937   -0.23588054
     atom    3 type  1   force =    -0.00023158   -0.00030508    0.18894040
     atom    4 type  1   force =     0.00012159    0.00007678    0.18551427
     The core correction contribution to forces
     atom    1 type  2   force =    -0.00008682   -0.00003333    0.00067892
     atom    2 type  3   force =     0.00000281    0.00000194    0.00000747
     atom    3 type  1   force =    -0.00002490   -0.00001341   -0.00000972
     atom    4 type  1   force =    -0.00003470   -0.00002336   -0.00005288
     The Hubbard contrib.    to forces
     atom    1 type  2   force =     0.00000000    0.00000000    0.00000000
     atom    2 type  3   force =     0.00000000    0.00000000    0.00000000
     atom    3 type  1   force =     0.00000000    0.00000000    0.00000000
     atom    4 type  1   force =     0.00000000    0.00000000    0.00000000
     The SCF correction term to forces
     atom    1 type  2   force =    -0.00000267   -0.00000124    0.00042658
     atom    2 type  3   force =     0.00000081    0.00000005    0.00087964
     atom    3 type  1   force =    -0.00000502    0.00000861   -0.00062294
     atom    4 type  1   force =     0.00000256   -0.00000383   -0.00062077

     DFT-D3 dispersion contribution to forces:
     atom    1 type  2   force =     0.00000017    0.00000010   -0.00002705
     atom    2 type  3   force =     0.00000013    0.00000009   -0.00001483
     atom    3 type  1   force =     0.00000011    0.00000003    0.00002967
     atom    4 type  1   force =    -0.00000041   -0.00000022    0.00001220

     Total force =     0.001244     Total SCF correction =     0.001315

     DFT-D3 dispersion Force =     0.000045
     SCF correction compared to forces is large: reduce conv_thr to get better values


     Computing stress (Cartesian axis) and pressure

          total   stress  (Ry/bohr**3)                   (kbar)     P=       -1.90
  -0.00002773   0.00000002   0.00000018           -4.08        0.00        0.03
   0.00000002  -0.00002753   0.00000010            0.00       -4.05        0.02
   0.00000018   0.00000010   0.00001656            0.03        0.02        2.44

     kinetic stress (kbar)  10622.38     -0.03     -0.60
                               -0.03  10622.43     -0.77
                               -0.60     -0.77  12009.49

     local   stress (kbar) -25012.64     -0.33    -20.44
                               -0.33 -25012.17    -25.83
                              -20.44    -25.83  21038.22

     nonloc. stress (kbar)   3889.31      0.00      0.14
                                0.00   3889.26      0.17
                                0.14      0.17   3577.18

     hartree stress (kbar)   8414.58      0.04      6.74
                                0.04   8414.51      8.51
                                6.74      8.51  -6790.96

     exc-cor stress (kbar)  -1380.39      0.01      0.05
                                0.01  -1380.40      0.06
                                0.05      0.06  -1487.25

     corecor stress (kbar)  -1326.77     -0.05     -0.00
                               -0.05  -1326.71     -0.01
                               -0.00     -0.01  -1289.40

     ewald   stress (kbar)   4796.27      0.37     14.14
                                0.37   4795.84     17.87
                               14.14     17.87 -27033.92

     hubbard stress (kbar)      0.00      0.00      0.00
                                0.00      0.00      0.00
                                0.00      0.00      0.00

     london  stress (kbar)      0.00      0.00      0.00
                                0.00      0.00      0.00
                                0.00      0.00      0.00

     DFT-D3  stress (kbar)     -6.82      0.00      0.01
                                0.00     -6.82      0.01
                                0.01      0.01    -20.92

     XDM     stress (kbar)      0.00      0.00      0.00
                                0.00      0.00      0.00
                                0.00      0.00      0.00

     dft-nl  stress (kbar)      0.00      0.00      0.00
                                0.00      0.00      0.00
                                0.00      0.00      0.00

     TS-vdW  stress (kbar)      0.00      0.00      0.00
                                0.00      0.00      0.00
                                0.00      0.00      0.00



     Writing output data file ./Gr_BN.save/

     init_run     :      1.21s CPU      1.23s WALL (       1 calls)
     electrons    :      7.22s CPU      7.25s WALL (       1 calls)
     forces       :      2.33s CPU      2.33s WALL (       1 calls)
     stress       :      3.02s CPU      3.02s WALL (       1 calls)

     Called by init_run:
     wfcinit      :      0.18s CPU      0.18s WALL (       1 calls)
     wfcinit:atom :      0.00s CPU      0.00s WALL (      10 calls)
     wfcinit:wfcr :      0.17s CPU      0.17s WALL (      10 calls)
     potinit      :      0.32s CPU      0.34s WALL (       1 calls)
     hinit0       :      0.68s CPU      0.68s WALL (       1 calls)

     Called by electrons:
     c_bands      :      3.94s CPU      3.97s WALL (       7 calls)
     sum_band     :      0.63s CPU      0.63s WALL (       7 calls)
     v_of_rho     :      0.12s CPU      0.13s WALL (       8 calls)
     v_h          :      0.00s CPU      0.00s WALL (       8 calls)
     v_xc         :      0.15s CPU      0.16s WALL (      10 calls)
     newd         :      0.12s CPU      0.12s WALL (       8 calls)
     PAW_pot      :      0.91s CPU      0.92s WALL (       8 calls)
     mix_rho      :      0.01s CPU      0.01s WALL (       7 calls)

     Called by c_bands:
     init_us_2    :      0.06s CPU      0.06s WALL (     170 calls)
     cegterg      :      3.88s CPU      3.90s WALL (      70 calls)

     Called by sum_band:
     sum_band:bec :      0.00s CPU      0.00s WALL (      70 calls)
     addusdens    :      0.10s CPU      0.10s WALL (       7 calls)

     Called by *egterg:
     h_psi        :      2.66s CPU      2.68s WALL (     326 calls)
     s_psi        :      0.21s CPU      0.21s WALL (     326 calls)
     g_psi        :      0.01s CPU      0.01s WALL (     246 calls)
     cdiaghg      :      0.19s CPU      0.20s WALL (     316 calls)
     cegterg:over :      0.42s CPU      0.42s WALL (     246 calls)
     cegterg:upda :      0.24s CPU      0.25s WALL (     246 calls)
     cegterg:last :      0.16s CPU      0.16s WALL (      76 calls)

     Called by h_psi:
     h_psi:calbec :      0.25s CPU      0.25s WALL (     326 calls)
     vloc_psi     :      2.19s CPU      2.21s WALL (     326 calls)
     add_vuspsi   :      0.21s CPU      0.21s WALL (     326 calls)

     General routines
     calbec       :      0.40s CPU      0.40s WALL (     446 calls)
     fft          :      0.05s CPU      0.05s WALL (     113 calls)
     ffts         :      0.00s CPU      0.00s WALL (       7 calls)
     fftw         :      2.35s CPU      2.37s WALL (    9176 calls)


     PAW routines
     PAW_pot      :      0.91s CPU      0.92s WALL (       8 calls)

     PWSCF        :     14.44s CPU     14.76s WALL


   This run was terminated on:  19:32:44   4Jun2020            

=------------------------------------------------------------------------------=
   JOB DONE.
=------------------------------------------------------------------------------=
          total   stress  (Ry/bohr**3)                   (kbar)     P=       -1.90
  -0.00002773   0.00000002   0.00000018           -4.08        0.00        0.03
   0.00000002  -0.00002753   0.00000010            0.00       -4.05        0.02
   0.00000018   0.00000010   0.00001656            0.03        0.02        2.44

     kinetic stress (kbar)  10622.38     -0.03     -0.60
                               -0.03  10622.43     -0.77
                               -0.60     -0.77  12009.49

     local   stress (kbar) -25012.64     -0.33    -20.44
                               -0.33 -25012.17    -25.83
                              -20.44    -25.83  21038.22

     nonloc. stress (kbar)   3889.31      0.00      0.14
                                0.00   3889.26      0.17
                                0.14      0.17   3577.18

     hartree stress (kbar)   8414.58      0.04      6.74
                                0.04   8414.51      8.51
                                6.74      8.51  -6790.96

     exc-cor stress (kbar)  -1380.39      0.01      0.05
                                0.01  -1380.40      0.06
                                0.05      0.06  -1487.25

     corecor stress (kbar)  -1326.77     -0.05     -0.00
                               -0.05  -1326.71     -0.01
                               -0.00     -0.01  -1289.40

     ewald   stress (kbar)   4796.27      0.37     14.14
                                0.37   4795.84     17.87
                               14.14     17.87 -27033.92

     hubbard stress (kbar)      0.00      0.00      0.00
                                0.00      0.00      0.00
                                0.00      0.00      0.00

     london  stress (kbar)      0.00      0.00      0.00
                                0.00      0.00      0.00
                                0.00      0.00      0.00

     DFT-D3  stress (kbar)     -6.82      0.00      0.01
                                0.00     -6.82      0.01
                                0.01      0.01    -20.92

     XDM     stress (kbar)      0.00      0.00      0.00
                                0.00      0.00      0.00
                                0.00      0.00      0.00

     dft-nl  stress (kbar)      0.00      0.00      0.00
                                0.00      0.00      0.00
                                0.00      0.00      0.00

     TS-vdW  stress (kbar)      0.00      0.00      0.00
                                0.00      0.00      0.00
                                0.00      0.00      0.00



     Writing output data file ./Gr_BN.save/

     init_run     :      1.22s CPU      1.22s WALL (       1 calls)
     electrons    :      7.25s CPU      7.26s WALL (       1 calls)
     forces       :      2.33s CPU      2.33s WALL (       1 calls)
     stress       :      3.02s CPU      3.02s WALL (       1 calls)

     Called by init_run:
     wfcinit      :      0.18s CPU      0.18s WALL (       1 calls)
     wfcinit:atom :      0.00s CPU      0.00s WALL (      10 calls)
     wfcinit:wfcr :      0.17s CPU      0.17s WALL (      10 calls)
     potinit      :      0.34s CPU      0.34s WALL (       1 calls)
     hinit0       :      0.68s CPU      0.68s WALL (       1 calls)

     Called by electrons:
     c_bands      :      3.97s CPU      3.98s WALL (       7 calls)
     sum_band     :      0.63s CPU      0.64s WALL (       7 calls)
     v_of_rho     :      0.13s CPU      0.13s WALL (       8 calls)
     v_h          :      0.00s CPU      0.00s WALL (       8 calls)
     v_xc         :      0.15s CPU      0.15s WALL (      10 calls)
     newd         :      0.12s CPU      0.12s WALL (       8 calls)
     PAW_pot      :      0.92s CPU      0.92s WALL (       8 calls)
     mix_rho      :      0.01s CPU      0.01s WALL (       7 calls)

     Called by c_bands:
     init_us_2    :      0.06s CPU      0.06s WALL (     170 calls)
     cegterg      :      3.90s CPU      3.91s WALL (      70 calls)

     Called by sum_band:
     sum_band:bec :      0.00s CPU      0.00s WALL (      70 calls)
     addusdens    :      0.10s CPU      0.10s WALL (       7 calls)

     Called by *egterg:
     h_psi        :      2.69s CPU      2.69s WALL (     326 calls)
     s_psi        :      0.20s CPU      0.21s WALL (     326 calls)
     g_psi        :      0.01s CPU      0.01s WALL (     246 calls)
     cdiaghg      :      0.19s CPU      0.19s WALL (     316 calls)
     cegterg:over :      0.42s CPU      0.42s WALL (     246 calls)
     cegterg:upda :      0.24s CPU      0.24s WALL (     246 calls)
     cegterg:last :      0.16s CPU      0.16s WALL (      76 calls)

     Called by h_psi:
     h_psi:calbec :      0.25s CPU      0.25s WALL (     326 calls)
     vloc_psi     :      2.22s CPU      2.22s WALL (     326 calls)
     add_vuspsi   :      0.21s CPU      0.21s WALL (     326 calls)

     General routines
     calbec       :      0.40s CPU      0.40s WALL (     446 calls)
     fft          :      0.05s CPU      0.05s WALL (     113 calls)
     ffts         :      0.00s CPU      0.00s WALL (       7 calls)
     fftw         :      2.38s CPU      2.38s WALL (    9176 calls)


     PAW routines
     PAW_pot      :      0.92s CPU      0.92s WALL (       8 calls)

     PWSCF        :     14.48s CPU     14.78s WALL


   This run was terminated on:  19:32:44   4Jun2020            

=------------------------------------------------------------------------------=
   JOB DONE.
=------------------------------------------------------------------------------=
