
     Program PWSCF v.6.5 starts on 28Sep2020 at 16:26:10 

     This program is part of the open-source Quantum ESPRESSO suite
     for quantum simulation of materials; please cite
         "P. Giannozzi et al., J. Phys.:Condens. Matter 21 395502 (2009);
         "P. Giannozzi et al., J. Phys.:Condens. Matter 29 465901 (2017);
          URL http://www.quantum-espresso.org", 
     in publications or presentations arising from this work. More details at
     http://www.quantum-espresso.org/quote

     Parallel version (MPI), running on     2 processors

     MPI processes distributed on     1 nodes
     R & G space division:  proc/nbgrp/npool/nimage =       2
     Reading input from relax.inp

     Current dimensions of program PWSCF are:
     Max number of different atomic species (ntypx) = 10
     Max number of k-points (npk) =  40000
     Max angular momentum in pseudopotentials (lmaxx) =  3
     Message from routine read_upf::
     Pseudo file C.pbe-n-kjpaw_psl.0.1.UPF has been fixed on the fly.
To avoid this message in the future, permanently fix 
 your pseudo files following these instructions: 
https://gitlab.com/QEF/q-e/blob/master/upftools/how_to_fix_upf.md
               file C.pbe-n-kjpaw_psl.0.1.UPF: wavefunction(s)  2P renormalized
               file N.pbe-n-kjpaw_psl.1.0.0.UPF: wavefunction(s)  2S renormalized

     Subspace diagonalization in iterative solution of the eigenvalue problem:
     a serial algorithm will be used


     Parallelization info
     --------------------
     sticks:   dense  smooth     PW     G-vecs:    dense   smooth      PW
     Min          54      54     18                 3188     3188     652
     Max          55      55     19                 3211     3211     671
     Sum         109     109     37                 6399     6399    1323


     Title: 
     Unstrained graphene optimization. 2 atoms fragment. VC-RELAX               


     bravais-lattice index     =            4
     lattice parameter (alat)  =       2.7779  a.u.
     unit-cell volume          =     126.2879 (a.u.)^3
     number of atoms/cell      =            7
     number of atomic types    =            2
     number of electrons       =        32.00
     number of Kohn-Sham states=           20
     kinetic-energy cutoff     =      52.0000  Ry
     charge density cutoff     =     208.0000  Ry
     convergence threshold     =      1.0E-06
     mixing beta               =       0.7000
     number of iterations used =            8  plain     mixing
     Exchange-correlation= SLA PW PBX PBC
                           (   1   4   3   4   0   0   0)
     nstep                     =          200


     celldm(1)=   2.777897  celldm(2)=   0.000000  celldm(3)=   6.802721
     celldm(4)=   0.000000  celldm(5)=   0.000000  celldm(6)=   0.000000

     crystal axes: (cart. coord. in units of alat)
               a(1) = (   1.000000   0.000000   0.000000 )  
               a(2) = (  -0.500000   0.866025   0.000000 )  
               a(3) = (   0.000000   0.000000   6.802721 )  

     reciprocal axes: (cart. coord. in units 2 pi/alat)
               b(1) = (  1.000000  0.577350 -0.000000 )  
               b(2) = (  0.000000  1.154701  0.000000 )  
               b(3) = (  0.000000 -0.000000  0.147000 )  


     PseudoPot. # 1 for C  read from file:
     ./C.pbe-n-kjpaw_psl.0.1.UPF
     MD5 check sum: 430fe95172b1e11ef3f8ed03bac87931
     Pseudo is Projector augmented-wave + core cor, Zval =  4.0
     Generated using "atomic" code by A. Dal Corso v.5.0.99 svn rev. 10869
     Shape of augmentation charge: BESSEL
     Using radial grid of 1073 points,  4 beta functions with: 
                l(1) =   0
                l(2) =   0
                l(3) =   1
                l(4) =   1
     Q(r) pseudized with 0 coefficients 


     PseudoPot. # 2 for N  read from file:
     ./N.pbe-n-kjpaw_psl.1.0.0.UPF
     MD5 check sum: a6186d50559fdcbe4b2d0187dd61a119
     Pseudo is Projector augmented-wave + core cor, Zval =  5.0
     Generated using "atomic" code by A. Dal Corso v.6.3
     Shape of augmentation charge: PSQ
     Using radial grid of 1085 points,  4 beta functions with: 
                l(1) =   0
                l(2) =   0
                l(3) =   1
                l(4) =   1
     Q(r) pseudized with 0 coefficients 


     atomic species   valence    mass     pseudopotential
        C              4.00    12.01100     C ( 1.00)
        N              5.00    14.00000     N ( 1.00)

      2 Sym. Ops. (no inversion) found


                                    s                        frac. trans.

      isym =  1     identity                                     

 cryst.   s( 1) = (     1          0          0      )
                  (     0          1          0      )
                  (     0          0          1      )

 cart.    s( 1) = (  1.0000000  0.0000000  0.0000000 )
                  (  0.0000000  1.0000000  0.0000000 )
                  (  0.0000000  0.0000000  1.0000000 )


      isym =  2     inv. 180 deg rotation - cart. axis [0,0,1]   

 cryst.   s( 2) = (     1          0          0      )
                  (     0          1          0      )
                  (     0          0         -1      )

 cart.    s( 2) = (  1.0000000  0.0000000  0.0000000 )
                  (  0.0000000  1.0000000  0.0000000 )
                  (  0.0000000  0.0000000 -1.0000000 )


     point group C_s (m)    
     there are  2 classes
     the character table:

       E     s    
A'     1.00  1.00
A''    1.00 -1.00

     the symmetry operations in each class and the name of the first element:

     E        1
          identity                                               
     s        2
          inv. 180 deg rotation - cart. axis [0,0,1]             

   Cartesian axes

     site n.     atom                  positions (alat units)
         1           C   tau(   1) = (   0.0833333   0.4330127   3.4013605  )
         2           C   tau(   2) = (   0.2000000   0.3464102   3.4013605  )
         3           C   tau(   3) = (   0.3000000   0.5196152   3.4013605  )
         4           N   tau(   4) = (   0.2500000   0.4330127   3.4013605  )
         5           N   tau(   5) = (   0.2666667   0.5773503   3.4013605  )
         6           N   tau(   6) = (   0.1666667   0.4041452   3.4013605  )
         7           N   tau(   7) = (   0.0277778   0.4330127   3.4013605  )

   Crystallographic axes

     site n.     atom                  positions (cryst. coord.)
         1           C   tau(   1) = (  0.3333333  0.5000000  0.5000000  )
         2           C   tau(   2) = (  0.4000000  0.4000000  0.5000000  )
         3           C   tau(   3) = (  0.6000000  0.6000000  0.5000000  )
         4           N   tau(   4) = (  0.5000000  0.5000000  0.5000000  )
         5           N   tau(   5) = (  0.6000000  0.6666667  0.5000000  )
         6           N   tau(   6) = (  0.4000000  0.4666667  0.5000000  )
         7           N   tau(   7) = (  0.2777778  0.5000000  0.5000000  )

     number of k points=    10  Methfessel-Paxton smearing, width (Ry)=  0.0200
                       cart. coord. in units 2pi/alat
        k(    1) = (   0.0000000   0.0000000   0.0000000), wk =   0.1250000
        k(    2) = (   0.0000000   0.2886751   0.0000000), wk =   0.2500000
        k(    3) = (   0.0000000  -0.5773503   0.0000000), wk =   0.1250000
        k(    4) = (   0.2500000   0.4330127   0.0000000), wk =   0.2500000
        k(    5) = (  -0.2500000   0.1443376   0.0000000), wk =   0.2500000
        k(    6) = (   0.2500000   0.1443376   0.0000000), wk =   0.2500000
        k(    7) = (   0.5000000  -0.2886751   0.0000000), wk =   0.1250000
        k(    8) = (  -0.5000000  -0.2886751   0.0000000), wk =   0.1250000
        k(    9) = (  -0.2500000   0.4330127   0.0000000), wk =   0.2500000
        k(   10) = (   0.5000000  -0.0000000   0.0000000), wk =   0.2500000

                       cryst. coord.
        k(    1) = (   0.0000000   0.0000000   0.0000000), wk =   0.1250000
        k(    2) = (   0.0000000   0.2500000   0.0000000), wk =   0.2500000
        k(    3) = (   0.0000000  -0.5000000   0.0000000), wk =   0.1250000
        k(    4) = (   0.2500000   0.2500000   0.0000000), wk =   0.2500000
        k(    5) = (  -0.2500000   0.2500000   0.0000000), wk =   0.2500000
        k(    6) = (   0.2500000   0.0000000   0.0000000), wk =   0.2500000
        k(    7) = (   0.5000000  -0.5000000   0.0000000), wk =   0.1250000
        k(    8) = (  -0.5000000   0.0000000   0.0000000), wk =   0.1250000
        k(    9) = (  -0.2500000   0.5000000   0.0000000), wk =   0.2500000
        k(   10) = (   0.5000000  -0.2500000   0.0000000), wk =   0.2500000

     Dense  grid:     6399 G-vectors     FFT dimensions: (  15,  15,  90)

     Dynamical RAM for                 wfc:       0.12 MB

     Dynamical RAM for     wfc (w. buffer):       1.34 MB

     Dynamical RAM for           str. fact:       0.10 MB

     Dynamical RAM for           local pot:       0.00 MB

     Dynamical RAM for          nlocal pot:       0.34 MB

     Dynamical RAM for                qrad:       0.59 MB

     Dynamical RAM for          rho,v,vnew:       0.38 MB

     Dynamical RAM for               rhoin:       0.13 MB

     Dynamical RAM for            rho*nmix:       0.78 MB

     Dynamical RAM for           G-vectors:       0.21 MB

     Dynamical RAM for          h,s,v(r/c):       0.29 MB

     Dynamical RAM for          <psi|beta>:       0.02 MB

     Dynamical RAM for                 psi:       0.49 MB

     Dynamical RAM for                hpsi:       0.49 MB

     Dynamical RAM for                spsi:       0.49 MB

     Dynamical RAM for      wfcinit/wfcrot:       0.36 MB

     Dynamical RAM for           addusdens:       2.29 MB

     Dynamical RAM for          addusforce:       3.05 MB

     Dynamical RAM for         addusstress:       2.43 MB

     Estimated static dynamical RAM per process >       4.39 MB

     Estimated max dynamical RAM per process >       7.44 MB

     Estimated total dynamical RAM >      14.87 MB

     Check: negative core charge=   -0.000043

     Initial potential from superposition of free atoms

     starting charge   31.99985, renormalised to   32.00000

     negative rho (up, down):  1.391E-04 0.000E+00
     Starting wfcs are   28 randomized atomic wfcs

 %%%%%%%%%%%%%%%%%%%%%%%%%%%%%%%%%%%%%%%%%%%%%%%%%%%%%%%%%%%%%%%%%%%%%%%%%%%%%%
     Error in routine cdiaghg (41):
     S matrix not positive definite
 %%%%%%%%%%%%%%%%%%%%%%%%%%%%%%%%%%%%%%%%%%%%%%%%%%%%%%%%%%%%%%%%%%%%%%%%%%%%%%

     stopping ...
